LAMMPS data file for Nanoparticles
4096 atoms
2 atom types
-73.2232986291 73.2232986291 xlo xhi
-73.2232986291 73.2232986291 ylo yhi
-0.5 0.5 zlo zhi

Atoms

1 1 1 -73.2233 -73.2233 0 0 0 0
2 1 2 -72.6253 -72.4218 0 0 0 0
3 1 2 72.6253 72.4218 0 -1 -1 0
4 2 1 -68.6468 -73.2233 0 0 0 0
5 2 2 -69.1269 72.3461 0 0 -1 0
6 2 2 -67.7696 72.7432 0 0 -1 0
7 2 2 -68.1668 -72.3461 0 0 0 0
8 2 2 -69.5241 -72.7432 0 0 0 0
9 3 1 -64.0704 -73.2233 0 0 0 0
10 3 2 -64.5897 -72.3687 0 0 0 0
11 3 2 -64.925 72.704 0 0 -1 0
12 3 2 -63.5511 72.3687 0 0 -1 0
13 3 2 -63.2158 -72.704 0 0 0 0
14 4 1 -59.4939 -73.2233 0 0 0 0
15 4 2 -58.7564 -72.548 0 0 0 0
16 4 2 -60.2314 72.548 0 0 -1 0
17 5 1 -54.9175 -73.2233 0 0 0 0
18 5 2 -55.9051 -73.0666 0 0 0 0
19 5 2 -55.0742 72.2357 0 0 -1 0
20 5 2 -53.9298 73.0666 0 0 -1 0
21 5 2 -54.7607 -72.2357 0 0 0 0
22 6 1 -50.341 -73.2233 0 0 0 0
23 6 2 -51.2314 -72.7682 0 0 0 0
24 6 2 -50.7961 72.3329 0 0 -1 0
25 6 2 -49.4506 72.7682 0 0 -1 0
26 6 2 -49.8859 -72.3329 0 0 0 0
27 7 1 -45.7646 -73.2233 0 0 0 0
28 7 2 -46.727 -72.9517 0 0 0 0
29 7 2 -44.8021 72.9517 0 0 -1 0
30 8 1 -41.1881 -73.2233 0 0 0 0
31 8 2 -41.7637 -72.4056 0 0 0 0
32 8 2 -40.6125 72.4056 0 0 -1 0
33 9 1 -36.6116 -73.2233 0 0 0 0
34 9 2 -36.8646 -72.2558 0 0 0 0
35 9 2 -36.3587 72.2558 0 0 -1 0
36 10 1 -32.0352 -73.2233 0 0 0 0
37 10 2 -31.5959 72.3249 0 0 -1 0
38 10 2 -32.4744 -72.3249 0 0 0 0
39 11 1 -27.4587 -73.2233 0 0 0 0
40 11 2 -28.3058 -72.6917 0 0 0 0
41 11 2 -27.9903 72.3763 0 0 -1 0
42 11 2 -26.6117 72.6917 0 0 -1 0
43 11 2 -26.9272 -72.3763 0 0 0 0
44 12 1 -22.8823 -73.2233 0 0 0 0
45 12 2 -23.4932 -72.4316 0 0 0 0
46 12 2 -22.2714 72.4316 0 0 -1 0
47 13 1 -18.3058 -73.2233 0 0 0 0
48 13 2 -19.0706 -72.579 0 0 0 0
49 13 2 -17.5411 72.579 0 0 -1 0
50 14 1 -13.7294 -73.2233 0 0 0 0
51 14 2 -12.8049 -72.842 0 0 0 0
52 14 2 -14.6538 72.842 0 0 -1 0
53 15 1 -9.15291 -73.2233 0 0 0 0
54 15 2 -8.15292 -73.2205 0 0 0 0
55 15 2 -9.15572 -72.2233 0 0 0 0
56 15 2 -10.1529 73.2205 0 0 -1 0
57 15 2 -9.15011 72.2233 0 0 -1 0
58 16 1 -4.57646 -73.2233 0 0 0 0
59 16 2 -3.67324 -72.7941 0 0 0 0
60 16 2 -5.00564 -72.3201 0 0 0 0
61 16 2 -5.47967 72.7941 0 0 -1 0
62 16 2 -4.14727 72.3201 0 0 -1 0
63 17 1 0 -73.2233 0 0 0 0
64 17 2 -0.584954 72.4122 0 0 -1 0
65 17 2 0.811067 72.6383 0 0 -1 0
66 17 2 0.584954 -72.4122 0 0 0 0
67 17 2 -0.811067 -72.6383 0 0 0 0
68 18 1 4.57646 -73.2233 0 0 0 0
69 18 2 5.01051 -72.3224 0 0 0 0
70 18 2 4.1424 72.3224 0 0 -1 0
71 19 1 9.15291 -73.2233 0 0 0 0
72 19 2 8.60583 -72.3862 0 0 0 0
73 19 2 8.31583 72.6762 0 0 -1 0
74 19 2 9.69999 72.3862 0 0 -1 0
75 19 2 9.98999 -72.6762 0 0 0 0
76 20 1 13.7294 -73.2233 0 0 0 0
77 20 2 14.5055 72.5927 0 0 -1 0
78 20 2 14.36 -72.4472 0 0 0 0
79 20 2 12.9533 -72.5927 0 0 0 0
80 20 2 13.0988 72.4472 0 0 -1 0
81 21 1 18.3058 -73.2233 0 0 0 0
82 21 2 19.212 -72.8003 0 0 0 0
83 21 2 17.3997 72.8003 0 0 -1 0
84 22 1 22.8823 -73.2233 0 0 0 0
85 22 2 22.2513 72.4475 0 0 -1 0
86 22 2 23.6581 72.5923 0 0 -1 0
87 22 2 23.5133 -72.4475 0 0 0 0
88 22 2 22.1065 -72.5923 0 0 0 0
89 23 1 27.4587 -73.2233 0 0 0 0
90 23 2 26.7246 -72.5443 0 0 0 0
91 23 2 26.7797 72.4892 0 0 -1 0
92 23 2 28.1928 72.5443 0 0 -1 0
93 23 2 28.1378 -72.4892 0 0 0 0
94 24 1 32.0352 -73.2233 0 0 0 0
95 24 2 31.0904 -72.8957 0 0 0 0
96 24 2 31.7076 72.2785 0 0 -1 0
97 24 2 32.98 72.8957 0 0 -1 0
98 24 2 32.3628 -72.2785 0 0 0 0
99 25 1 36.6116 -73.2233 0 0 0 0
100 25 2 35.6286 73.0401 0 0 -1 0
101 25 2 36.7948 72.2402 0 0 -1 0
102 25 2 37.5947 -73.0401 0 0 0 0
103 25 2 36.4285 -72.2402 0 0 0 0
104 26 1 41.1881 -73.2233 0 0 0 0
105 26 2 40.4966 72.501 0 0 -1 0
106 26 2 41.9104 72.5317 0 0 -1 0
107 26 2 41.8797 -72.501 0 0 0 0
108 26 2 40.4658 -72.5317 0 0 0 0
109 27 1 45.7646 -73.2233 0 0 0 0
110 27 2 46.6285 -72.7197 0 0 0 0
111 27 2 45.2609 -72.3594 0 0 0 0
112 27 2 44.9006 72.7197 0 0 -1 0
113 27 2 46.2682 72.3594 0 0 -1 0
114 28 1 50.341 -73.2233 0 0 0 0
115 28 2 50.1741 -72.2373 0 0 0 0
116 28 2 50.5079 72.2373 0 0 -1 0
117 29 1 54.9175 -73.2233 0 0 0 0
118 29 2 53.9723 72.8968 0 0 -1 0
119 29 2 55.244 72.2781 0 0 -1 0
120 29 2 55.8627 -72.8968 0 0 0 0
121 29 2 54.591 -72.2781 0 0 0 0
122 30 1 59.4939 -73.2233 0 0 0 0
123 30 2 58.6583 72.6741 0 0 -1 0
124 30 2 60.0432 72.3876 0 0 -1 0
125 30 2 60.3296 -72.6741 0 0 0 0
126 30 2 58.9447 -72.3876 0 0 0 0
127 31 1 64.0704 -73.2233 0 0 0 0
128 31 2 64.4804 -72.3112 0 0 0 0
129 31 2 63.1583 -72.8133 0 0 0 0
130 31 2 63.6604 72.3112 0 0 -1 0
131 31 2 64.9825 72.8133 0 0 -1 0
132 32 1 68.6468 -73.2233 0 0 0 0
133 32 2 67.7648 72.7522 0 0 -1 0
134 32 2 69.118 72.3412 0 0 -1 0
135 32 2 69.5289 -72.7522 0 0 0 0
136 32 2 68.1757 -72.3412 0 0 0 0
137 33 1 -73.2233 -68.6468 0 0 0 0
138 33 2 -72.3624 -68.1381 0 0 0 0
139 33 2 72.7145 -67.7859 0 -1 0 0
140 33 2 72.3624 -69.1556 0 -1 0 0
141 33 2 -72.7145 -69.5078 0 0 0 0
142 34 1 -68.6468 -68.6468 0 0 0 0
143 34 2 -67.8993 -69.3111 0 0 0 0
144 34 2 -69.3943 -67.9826 0 0 0 0
145 35 1 -64.0704 -68.6468 0 0 0 0
146 35 2 -63.2468 -68.0797 0 0 0 0
147 35 2 -64.894 -69.214 0 0 0 0
148 36 1 -59.4939 -68.6468 0 0 0 0
149 36 2 -60.3561 -68.1402 0 0 0 0
150 36 2 -58.6317 -69.1534 0 0 0 0
151 37 1 -54.9175 -68.6468 0 0 0 0
152 37 2 -55.8929 -68.867 0 0 0 0
153 37 2 -54.6973 -69.6223 0 0 0 0
154 37 2 -53.942 -68.4266 0 0 0 0
155 37 2 -55.1377 -67.6714 0 0 0 0
156 38 1 -50.341 -68.6468 0 0 0 0
157 38 2 -49.7812 -69.4754 0 0 0 0
158 38 2 -50.9009 -67.8183 0 0 0 0
159 39 1 -45.7646 -68.6468 0 0 0 0
160 39 2 -46.7408 -68.4302 0 0 0 0
161 39 2 -45.9812 -69.6231 0 0 0 0
162 39 2 -44.7883 -68.8635 0 0 0 0
163 39 2 -45.5479 -67.6706 0 0 0 0
164 40 1 -41.1881 -68.6468 0 0 0 0
165 40 2 -41.9323 -69.3148 0 0 0 0
166 40 2 -40.4439 -67.9789 0 0 0 0
167 41 1 -36.6116 -68.6468 0 0 0 0
168 41 2 -36.6813 -69.6444 0 0 0 0
169 41 2 -36.542 -67.6493 0 0 0 0
170 42 1 -32.0352 -68.6468 0 0 0 0
171 42 2 -32.2862 -67.6789 0 0 0 0
172 42 2 -33.0032 -68.8978 0 0 0 0
173 42 2 -31.7842 -69.6148 0 0 0 0
174 42 2 -31.0672 -68.3959 0 0 0 0
175 43 1 -27.4587 -68.6468 0 0 0 0
176 43 2 -26.4643 -68.5414 0 0 0 0
177 43 2 -28.4532 -68.7523 0 0 0 0
178 44 1 -22.8823 -68.6468 0 0 0 0
179 44 2 -23.1202 -67.6756 0 0 0 0
180 44 2 -23.8536 -68.8848 0 0 0 0
181 44 2 -22.6443 -69.6181 0 0 0 0
182 44 2 -21.911 -68.4089 0 0 0 0
183 45 1 -18.3058 -68.6468 0 0 0 0
184 45 2 -18.4009 -69.6423 0 0 0 0
185 45 2 -18.2108 -67.6514 0 0 0 0
186 46 1 -13.7294 -68.6468 0 0 0 0
187 46 2 -12.881 -69.1762 0 0 0 0
188 46 2 -14.5778 -68.1175 0 0 0 0
189 47 1 -9.15291 -68.6468 0 0 0 0
190 47 2 -9.01395 -69.6371 0 0 0 0
191 47 2 -8.16262 -68.5079 0 0 0 0
192 47 2 -9.29188 -67.6565 0 0 0 0
193 47 2 -10.1432 -68.7858 0 0 0 0
194 48 1 -4.57646 -68.6468 0 0 0 0
195 48 2 -5.49258 -68.2459 0 0 0 0
196 48 2 -3.66033 -69.0477 0 0 0 0
197 49 1 0 -68.6468 0 0 0 0
198 49 2 0.946646 -68.3246 0 0 0 0
199 49 2 -0.946646 -68.9691 0 0 0 0
200 50 1 4.57646 -68.6468 0 0 0 0
201 50 2 5.33077 -69.3034 0 0 0 0
202 50 2 5.23298 -67.8925 0 0 0 0
203 50 2 3.82215 -67.9903 0 0 0 0
204 50 2 3.91994 -69.4012 0 0 0 0
205 51 1 9.15291 -68.6468 0 0 0 0
206 51 2 8.34762 -68.054 0 0 0 0
207 51 2 8.56003 -69.4521 0 0 0 0
208 51 2 9.9582 -69.2397 0 0 0 0
209 51 2 9.74579 -67.8416 0 0 0 0
210 52 1 13.7294 -68.6468 0 0 0 0
211 52 2 14.4259 -67.9293 0 0 0 0
212 52 2 13.0328 -69.3644 0 0 0 0
213 53 1 18.3058 -68.6468 0 0 0 0
214 53 2 18.476 -67.6614 0 0 0 0
215 53 2 18.1356 -69.6323 0 0 0 0
216 54 1 22.8823 -68.6468 0 0 0 0
217 54 2 23.3622 -67.7696 0 0 0 0
218 54 2 22.4023 -69.5241 0 0 0 0
219 55 1 27.4587 -68.6468 0 0 0 0
220 55 2 26.6029 -68.1295 0 0 0 0
221 55 2 26.9414 -69.5026 0 0 0 0
222 55 2 28.3145 -69.1642 0 0 0 0
223 55 2 27.976 -67.791 0 0 0 0
224 56 1 32.0352 -68.6468 0 0 0 0
225 56 2 31.1604 -68.1624 0 0 0 0
226 56 2 32.91 -69.1313 0 0 0 0
227 57 1 36.6116 -68.6468 0 0 0 0
228 57 2 35.6278 -68.4681 0 0 0 0
229 57 2 37.5955 -68.8256 0 0 0 0
230 58 1 41.1881 -68.6468 0 0 0 0
231 58 2 40.195 -68.764 0 0 0 0
232 58 2 41.3053 -69.64 0 0 0 0
233 58 2 42.1812 -68.5297 0 0 0 0
234 58 2 41.0709 -67.6537 0 0 0 0
235 59 1 45.7646 -68.6468 0 0 0 0
236 59 2 45.6214 -67.6571 0 0 0 0
237 59 2 45.9077 -69.6365 0 0 0 0
238 60 1 50.341 -68.6468 0 0 0 0
239 60 2 49.6133 -67.961 0 0 0 0
240 60 2 49.6552 -69.3746 0 0 0 0
241 60 2 51.0688 -69.3327 0 0 0 0
242 60 2 51.0269 -67.9191 0 0 0 0
243 61 1 54.9175 -68.6468 0 0 0 0
244 61 2 53.9478 -68.8911 0 0 0 0
245 61 2 55.8872 -68.4026 0 0 0 0
246 62 1 59.4939 -68.6468 0 0 0 0
247 62 2 59.4246 -69.6444 0 0 0 0
248 62 2 59.5633 -67.6493 0 0 0 0
249 63 1 64.0704 -68.6468 0 0 0 0
250 63 2 64.8296 -69.2977 0 0 0 0
251 63 2 63.3112 -67.9959 0 0 0 0
252 64 1 68.6468 -68.6468 0 0 0 0
253 64 2 67.6488 -68.7099 0 0 0 0
254 64 2 68.7099 -69.6449 0 0 0 0
255 64 2 69.6449 -68.5838 0 0 0 0
256 64 2 68.5838 -67.6488 0 0 0 0
257 65 1 -73.2233 -64.0704 0 0 0 0
258 65 2 72.3501 -63.5831 0 -1 0 0
259 65 2 72.736 -64.9436 0 -1 0 0
260 65 2 -72.3501 -64.5577 0 0 0 0
261 65 2 -72.736 -63.1971 0 0 0 0
262 66 1 -68.6468 -64.0704 0 0 0 0
263 66 2 -69.4477 -64.6693 0 0 0 0
264 66 2 -67.846 -63.4715 0 0 0 0
265 67 1 -64.0704 -64.0704 0 0 0 0
266 67 2 -64.7032 -63.2961 0 0 0 0
267 67 2 -63.4375 -64.8447 0 0 0 0
268 68 1 -59.4939 -64.0704 0 0 0 0
269 68 2 -59.0172 -64.9494 0 0 0 0
270 68 2 -58.6149 -63.5936 0 0 0 0
271 68 2 -59.9707 -63.1914 0 0 0 0
272 68 2 -60.373 -64.5472 0 0 0 0
273 69 1 -54.9175 -64.0704 0 0 0 0
274 69 2 -53.924 -64.1844 0 0 0 0
275 69 2 -54.8034 -63.0769 0 0 0 0
276 69 2 -55.9109 -63.9563 0 0 0 0
277 69 2 -55.0315 -65.0639 0 0 0 0
278 70 1 -50.341 -64.0704 0 0 0 0
279 70 2 -50.5479 -63.092 0 0 0 0
280 70 2 -50.1341 -65.0488 0 0 0 0
281 71 1 -45.7646 -64.0704 0 0 0 0
282 71 2 -44.9851 -63.4439 0 0 0 0
283 71 2 -46.544 -64.6969 0 0 0 0
284 72 1 -41.1881 -64.0704 0 0 0 0
285 72 2 -41.3772 -65.0523 0 0 0 0
286 72 2 -40.2062 -64.2595 0 0 0 0
287 72 2 -40.999 -63.0884 0 0 0 0
288 72 2 -42.1701 -63.8813 0 0 0 0
289 73 1 -36.6116 -64.0704 0 0 0 0
290 73 2 -36.4154 -65.0509 0 0 0 0
291 73 2 -35.6311 -63.8742 0 0 0 0
292 73 2 -36.8079 -63.0898 0 0 0 0
293 73 2 -37.5922 -64.2666 0 0 0 0
294 74 1 -32.0352 -64.0704 0 0 0 0
295 74 2 -32.48 -63.1748 0 0 0 0
296 74 2 -32.9308 -64.5152 0 0 0 0
297 74 2 -31.5904 -64.966 0 0 0 0
298 74 2 -31.1396 -63.6256 0 0 0 0
299 75 1 -27.4587 -64.0704 0 0 0 0
300 75 2 -27.0386 -64.9778 0 0 0 0
301 75 2 -27.8789 -63.1629 0 0 0 0
302 76 1 -22.8823 -64.0704 0 0 0 0
303 76 2 -23.0181 -65.0611 0 0 0 0
304 76 2 -22.7465 -63.0797 0 0 0 0
305 77 1 -18.3058 -64.0704 0 0 0 0
306 77 2 -19.2969 -64.2039 0 0 0 0
307 77 2 -18.1723 -65.0614 0 0 0 0
308 77 2 -17.3148 -63.9369 0 0 0 0
309 77 2 -18.4393 -63.0793 0 0 0 0
310 78 1 -13.7294 -64.0704 0 0 0 0
311 78 2 -13.0754 -63.3139 0 0 0 0
312 78 2 -14.3834 -64.8269 0 0 0 0
313 79 1 -9.15291 -64.0704 0 0 0 0
314 79 2 -9.96214 -63.4829 0 0 0 0
315 79 2 -8.34368 -64.6579 0 0 0 0
316 80 1 -4.57646 -64.0704 0 0 0 0
317 80 2 -5.32455 -64.734 0 0 0 0
318 80 2 -3.91287 -64.8185 0 0 0 0
319 80 2 -3.82836 -63.4068 0 0 0 0
320 80 2 -5.24004 -63.3223 0 0 0 0
321 81 1 0 -64.0704 0 0 0 0
322 81 2 0.373874 -63.1429 0 0 0 0
323 81 2 -0.927479 -63.6965 0 0 0 0
324 81 2 -0.373874 -64.9979 0 0 0 0
325 81 2 0.927479 -64.4443 0 0 0 0
326 82 1 4.57646 -64.0704 0 0 0 0
327 82 2 4.01261 -63.2445 0 0 0 0
328 82 2 3.75057 -64.6342 0 0 0 0
329 82 2 5.1403 -64.8963 0 0 0 0
330 82 2 5.40234 -63.5065 0 0 0 0
331 83 1 9.15291 -64.0704 0 0 0 0
332 83 2 10.144 -64.2033 0 0 0 0
333 83 2 8.16179 -63.9375 0 0 0 0
334 84 1 13.7294 -64.0704 0 0 0 0
335 84 2 13.0423 -64.797 0 0 0 0
336 84 2 14.4559 -64.7575 0 0 0 0
337 84 2 14.4165 -63.3438 0 0 0 0
338 84 2 13.0028 -63.3833 0 0 0 0
339 85 1 18.3058 -64.0704 0 0 0 0
340 85 2 18.1592 -65.0596 0 0 0 0
341 85 2 18.4525 -63.0812 0 0 0 0
342 86 1 22.8823 -64.0704 0 0 0 0
343 86 2 23.7218 -63.5271 0 0 0 0
344 86 2 22.0427 -64.6137 0 0 0 0
345 87 1 27.4587 -64.0704 0 0 0 0
346 87 2 28.3231 -63.5675 0 0 0 0
347 87 2 26.9559 -63.206 0 0 0 0
348 87 2 26.5944 -64.5732 0 0 0 0
349 87 2 27.9616 -64.9348 0 0 0 0
350 88 1 32.0352 -64.0704 0 0 0 0
351 88 2 31.9918 -65.0694 0 0 0 0
352 88 2 32.0786 -63.0713 0 0 0 0
353 89 1 36.6116 -64.0704 0 0 0 0
354 89 2 35.6358 -63.8521 0 0 0 0
355 89 2 36.3934 -65.0463 0 0 0 0
356 89 2 37.5875 -64.2886 0 0 0 0
357 89 2 36.8299 -63.0945 0 0 0 0
358 90 1 41.1881 -64.0704 0 0 0 0
359 90 2 42.0545 -63.571 0 0 0 0
360 90 2 40.3217 -64.5697 0 0 0 0
361 91 1 45.7646 -64.0704 0 0 0 0
362 91 2 44.7646 -64.0707 0 0 0 0
363 91 2 45.7649 -65.0704 0 0 0 0
364 91 2 46.7646 -64.0701 0 0 0 0
365 91 2 45.7642 -63.0704 0 0 0 0
366 92 1 50.341 -64.0704 0 0 0 0
367 92 2 50.7125 -63.142 0 0 0 0
368 92 2 49.4126 -63.6989 0 0 0 0
369 92 2 49.9695 -64.9988 0 0 0 0
370 92 2 51.2694 -64.4419 0 0 0 0
371 93 1 54.9175 -64.0704 0 0 0 0
372 93 2 54.198 -63.3759 0 0 0 0
373 93 2 55.637 -64.7649 0 0 0 0
374 94 1 59.4939 -64.0704 0 0 0 0
375 94 2 58.6474 -64.6028 0 0 0 0
376 94 2 60.3404 -63.538 0 0 0 0
377 95 1 64.0704 -64.0704 0 0 0 0
378 95 2 65.0546 -64.2473 0 0 0 0
379 95 2 63.0862 -63.8935 0 0 0 0
380 96 1 68.6468 -64.0704 0 0 0 0
381 96 2 69.5145 -64.5676 0 0 0 0
382 96 2 69.1441 -63.2028 0 0 0 0
383 96 2 67.7792 -63.5732 0 0 0 0
384 96 2 68.1496 -64.938 0 0 0 0
385 97 1 -73.2233 -59.4939 0 0 0 0
386 97 2 -72.4028 -58.9223 0 0 0 0
387 97 2 72.4028 -60.0655 0 -1 0 0
388 98 1 -68.6468 -59.4939 0 0 0 0
389 98 2 -69.6118 -59.2317 0 0 0 0
390 98 2 -68.9091 -60.4589 0 0 0 0
391 98 2 -67.6818 -59.7562 0 0 0 0
392 98 2 -68.3846 -58.5289 0 0 0 0
393 99 1 -64.0704 -59.4939 0 0 0 0
394 99 2 -65.0638 -59.6087 0 0 0 0
395 99 2 -63.077 -59.3792 0 0 0 0
396 100 1 -59.4939 -59.4939 0 0 0 0
397 100 2 -60.0321 -60.3368 0 0 0 0
398 100 2 -58.9557 -58.6511 0 0 0 0
399 101 1 -54.9175 -59.4939 0 0 0 0
400 101 2 -55.7748 -58.9792 0 0 0 0
401 101 2 -54.0601 -60.0086 0 0 0 0
402 102 1 -50.341 -59.4939 0 0 0 0
403 102 2 -51.0468 -60.2024 0 0 0 0
404 102 2 -49.6353 -58.7855 0 0 0 0
405 103 1 -45.7646 -59.4939 0 0 0 0
406 103 2 -44.8588 -59.9176 0 0 0 0
407 103 2 -46.6704 -59.0702 0 0 0 0
408 104 1 -41.1881 -59.4939 0 0 0 0
409 104 2 -41.9955 -58.9039 0 0 0 0
410 104 2 -41.7781 -60.3013 0 0 0 0
411 104 2 -40.3807 -60.0839 0 0 0 0
412 104 2 -40.5981 -58.6865 0 0 0 0
413 105 1 -36.6116 -59.4939 0 0 0 0
414 105 2 -37.3414 -58.8102 0 0 0 0
415 105 2 -37.2953 -60.2237 0 0 0 0
416 105 2 -35.8819 -60.1776 0 0 0 0
417 105 2 -35.928 -58.7642 0 0 0 0
418 106 1 -32.0352 -59.4939 0 0 0 0
419 106 2 -31.0354 -59.5132 0 0 0 0
420 106 2 -33.035 -59.4747 0 0 0 0
421 107 1 -27.4587 -59.4939 0 0 0 0
422 107 2 -26.4704 -59.3415 0 0 0 0
423 107 2 -27.6112 -58.5056 0 0 0 0
424 107 2 -28.447 -59.6464 0 0 0 0
425 107 2 -27.3063 -60.4822 0 0 0 0
426 108 1 -22.8823 -59.4939 0 0 0 0
427 108 2 -22.2201 -58.7446 0 0 0 0
428 108 2 -23.6316 -58.8317 0 0 0 0
429 108 2 -23.5445 -60.2433 0 0 0 0
430 108 2 -22.1329 -60.1561 0 0 0 0
431 109 1 -18.3058 -59.4939 0 0 0 0
432 109 2 -18.8869 -58.6801 0 0 0 0
433 109 2 -19.1197 -60.075 0 0 0 0
434 109 2 -17.7248 -60.3078 0 0 0 0
435 109 2 -17.492 -58.9129 0 0 0 0
436 110 1 -13.7294 -59.4939 0 0 0 0
437 110 2 -13.0147 -58.7944 0 0 0 0
438 110 2 -14.444 -60.1934 0 0 0 0
439 111 1 -9.15291 -59.4939 0 0 0 0
440 111 2 -9.99072 -58.948 0 0 0 0
441 111 2 -9.69888 -60.3317 0 0 0 0
442 111 2 -8.31511 -60.0399 0 0 0 0
443 111 2 -8.60694 -58.6561 0 0 0 0
444 112 1 -4.57646 -59.4939 0 0 0 0
445 112 2 -5.31169 -58.8161 0 0 0 0
446 112 2 -5.25427 -60.2292 0 0 0 0
447 112 2 -3.84122 -60.1717 0 0 0 0
448 112 2 -3.89864 -58.7587 0 0 0 0
449 113 1 0 -59.4939 0 0 0 0
450 113 2 -0.33785 -60.4351 0 0 0 0
451 113 2 0.33785 -58.5527 0 0 0 0
452 114 1 4.57646 -59.4939 0 0 0 0
453 114 2 4.0617 -58.6366 0 0 0 0
454 114 2 5.09121 -60.3513 0 0 0 0
455 115 1 9.15291 -59.4939 0 0 0 0
456 115 2 8.15366 -59.5325 0 0 0 0
457 115 2 10.1522 -59.4553 0 0 0 0
458 116 1 13.7294 -59.4939 0 0 0 0
459 116 2 12.7522 -59.7063 0 0 0 0
460 116 2 13.9418 -60.4711 0 0 0 0
461 116 2 14.7066 -59.2815 0 0 0 0
462 116 2 13.517 -58.5167 0 0 0 0
463 117 1 18.3058 -59.4939 0 0 0 0
464 117 2 18.1004 -60.4726 0 0 0 0
465 117 2 19.2845 -59.6994 0 0 0 0
466 117 2 18.5113 -58.5153 0 0 0 0
467 117 2 17.3272 -59.2885 0 0 0 0
468 118 1 22.8823 -59.4939 0 0 0 0
469 118 2 23.882 -59.518 0 0 0 0
470 118 2 21.8826 -59.4699 0 0 0 0
471 119 1 27.4587 -59.4939 0 0 0 0
472 119 2 27.8708 -60.4051 0 0 0 0
473 119 2 27.0467 -58.5828 0 0 0 0
474 120 1 32.0352 -59.4939 0 0 0 0
475 120 2 31.5862 -58.6004 0 0 0 0
476 120 2 32.4841 -60.3875 0 0 0 0
477 121 1 36.6116 -59.4939 0 0 0 0
478 121 2 35.8231 -58.8789 0 0 0 0
479 121 2 37.4002 -60.1089 0 0 0 0
480 122 1 41.1881 -59.4939 0 0 0 0
481 122 2 40.9284 -60.4596 0 0 0 0
482 122 2 41.4479 -58.5283 0 0 0 0
483 123 1 45.7646 -59.4939 0 0 0 0
484 123 2 46.4633 -58.7786 0 0 0 0
485 123 2 45.0492 -58.7952 0 0 0 0
486 123 2 45.0658 -60.2093 0 0 0 0
487 123 2 46.4799 -60.1927 0 0 0 0
488 124 1 50.341 -59.4939 0 0 0 0
489 124 2 50.9482 -60.2885 0 0 0 0
490 124 2 49.7338 -58.6994 0 0 0 0
491 125 1 54.9175 -59.4939 0 0 0 0
492 125 2 55.8619 -59.8226 0 0 0 0
493 125 2 53.973 -59.1652 0 0 0 0
494 126 1 59.4939 -59.4939 0 0 0 0
495 126 2 59.7243 -60.467 0 0 0 0
496 126 2 59.2636 -58.5208 0 0 0 0
497 127 1 64.0704 -59.4939 0 0 0 0
498 127 2 64.4999 -60.397 0 0 0 0
499 127 2 64.9734 -59.0644 0 0 0 0
500 127 2 63.6409 -58.5909 0 0 0 0
501 127 2 63.1673 -59.9235 0 0 0 0
502 128 1 68.6468 -59.4939 0 0 0 0
503 128 2 67.9491 -60.2103 0 0 0 0
504 128 2 69.3446 -58.7776 0 0 0 0
505 129 1 -73.2233 -54.9175 0 0 0 0
506 129 2 72.4088 -55.4977 0 -1 0 0
507 129 2 -72.4088 -54.3373 0 0 0 0
508 130 1 -68.6468 -54.9175 0 0 0 0
509 130 2 -69.4554 -55.5058 0 0 0 0
510 130 2 -67.8382 -54.3291 0 0 0 0
511 131 1 -64.0704 -54.9175 0 0 0 0
512 131 2 -63.3702 -54.2035 0 0 0 0
513 131 2 -64.7843 -54.2173 0 0 0 0
514 131 2 -64.7706 -55.6314 0 0 0 0
515 131 2 -63.3564 -55.6177 0 0 0 0
516 132 1 -59.4939 -54.9175 0 0 0 0
517 132 2 -60.3991 -55.3425 0 0 0 0
518 132 2 -59.069 -55.8227 0 0 0 0
519 132 2 -58.5887 -54.4925 0 0 0 0
520 132 2 -59.9189 -54.0123 0 0 0 0
521 133 1 -54.9175 -54.9175 0 0 0 0
522 133 2 -55.3233 -54.0035 0 0 0 0
523 133 2 -54.5116 -55.8314 0 0 0 0
524 134 1 -50.341 -54.9175 0 0 0 0
525 134 2 -50.1629 -53.9335 0 0 0 0
526 134 2 -51.325 -54.7394 0 0 0 0
527 134 2 -50.5191 -55.9015 0 0 0 0
528 134 2 -49.357 -55.0955 0 0 0 0
529 135 1 -45.7646 -54.9175 0 0 0 0
530 135 2 -44.7914 -55.1478 0 0 0 0
531 135 2 -45.5342 -53.9444 0 0 0 0
532 135 2 -46.7377 -54.6872 0 0 0 0
533 135 2 -45.9949 -55.8906 0 0 0 0
534 136 1 -41.1881 -54.9175 0 0 0 0
535 136 2 -42.0902 -55.349 0 0 0 0
536 136 2 -40.7565 -55.8196 0 0 0 0
537 136 2 -40.286 -54.4859 0 0 0 0
538 136 2 -41.6197 -54.0154 0 0 0 0
539 137 1 -36.6116 -54.9175 0 0 0 0
540 137 2 -36.4339 -55.9016 0 0 0 0
541 137 2 -36.7894 -53.9334 0 0 0 0
542 138 1 -32.0352 -54.9175 0 0 0 0
543 138 2 -31.6668 -53.9878 0 0 0 0
544 138 2 -32.4036 -55.8472 0 0 0 0
545 139 1 -27.4587 -54.9175 0 0 0 0
546 139 2 -28.4143 -54.6228 0 0 0 0
547 139 2 -26.5031 -55.2121 0 0 0 0
548 140 1 -22.8823 -54.9175 0 0 0 0
549 140 2 -23.6394 -54.2641 0 0 0 0
550 140 2 -23.5356 -55.6746 0 0 0 0
551 140 2 -22.1252 -55.5708 0 0 0 0
552 140 2 -22.229 -54.1604 0 0 0 0
553 141 1 -18.3058 -54.9175 0 0 0 0
554 141 2 -17.5336 -54.2821 0 0 0 0
555 141 2 -18.9412 -54.1453 0 0 0 0
556 141 2 -19.078 -55.5529 0 0 0 0
557 141 2 -17.6704 -55.6897 0 0 0 0
558 142 1 -13.7294 -54.9175 0 0 0 0
559 142 2 -14.7036 -54.6921 0 0 0 0
560 142 2 -12.7551 -55.1428 0 0 0 0
561 143 1 -9.15291 -54.9175 0 0 0 0
562 143 2 -8.15635 -54.8346 0 0 0 0
563 143 2 -10.1495 -55.0003 0 0 0 0
564 144 1 -4.57646 -54.9175 0 0 0 0
565 144 2 -4.32348 -53.95 0 0 0 0
566 144 2 -4.82943 -55.8849 0 0 0 0
567 145 1 0 -54.9175 0 0 0 0
568 145 2 -0.660445 -55.6683 0 0 0 0
569 145 2 0.750875 -55.5779 0 0 0 0
570 145 2 0.660445 -54.1666 0 0 0 0
571 145 2 -0.750875 -54.257 0 0 0 0
572 146 1 4.57646 -54.9175 0 0 0 0
573 146 2 5.33314 -55.5713 0 0 0 0
574 146 2 3.81977 -54.2637 0 0 0 0
575 147 1 9.15291 -54.9175 0 0 0 0
576 147 2 9.73681 -55.7293 0 0 0 0
577 147 2 8.56901 -54.1056 0 0 0 0
578 148 1 13.7294 -54.9175 0 0 0 0
579 148 2 14.4791 -54.2557 0 0 0 0
580 148 2 12.9796 -55.5792 0 0 0 0
581 149 1 18.3058 -54.9175 0 0 0 0
582 149 2 17.6631 -55.6835 0 0 0 0
583 149 2 18.9486 -54.1514 0 0 0 0
584 150 1 22.8823 -54.9175 0 0 0 0
585 150 2 23.3963 -54.0597 0 0 0 0
586 150 2 22.3683 -55.7753 0 0 0 0
587 151 1 27.4587 -54.9175 0 0 0 0
588 151 2 28.1573 -55.633 0 0 0 0
589 151 2 28.1743 -54.2189 0 0 0 0
590 151 2 26.7602 -54.2019 0 0 0 0
591 151 2 26.7432 -55.6161 0 0 0 0
592 152 1 32.0352 -54.9175 0 0 0 0
593 152 2 31.3959 -54.1485 0 0 0 0
594 152 2 31.2663 -55.5568 0 0 0 0
595 152 2 32.6745 -55.6864 0 0 0 0
596 152 2 32.8041 -54.2781 0 0 0 0
597 153 1 36.6116 -54.9175 0 0 0 0
598 153 2 35.7674 -55.4533 0 0 0 0
599 153 2 37.1475 -55.7618 0 0 0 0
600 153 2 37.4559 -54.3816 0 0 0 0
601 153 2 36.0758 -54.0732 0 0 0 0
602 154 1 41.1881 -54.9175 0 0 0 0
603 154 2 41.8052 -55.7043 0 0 0 0
604 154 2 41.975 -54.3003 0 0 0 0
605 154 2 40.571 -54.1306 0 0 0 0
606 154 2 40.4013 -55.5346 0 0 0 0
607 155 1 45.7646 -54.9175 0 0 0 0
608 155 2 45.6001 -53.9311 0 0 0 0
609 155 2 45.929 -55.9039 0 0 0 0
610 156 1 50.341 -54.9175 0 0 0 0
611 156 2 51.1295 -55.5326 0 0 0 0
612 156 2 50.9561 -54.129 0 0 0 0
613 156 2 49.5526 -54.3024 0 0 0 0
614 156 2 49.7259 -55.7059 0 0 0 0
615 157 1 54.9175 -54.9175 0 0 0 0
616 157 2 54.5059 -55.8289 0 0 0 0
617 157 2 55.329 -54.0061 0 0 0 0
618 158 1 59.4939 -54.9175 0 0 0 0
619 158 2 59.5915 -53.9222 0 0 0 0
620 158 2 59.3964 -55.9127 0 0 0 0
621 159 1 64.0704 -54.9175 0 0 0 0
622 159 2 63.2328 -54.3711 0 0 0 0
623 159 2 63.5241 -55.755 0 0 0 0
624 159 2 64.908 -55.4638 0 0 0 0
625 159 2 64.6167 -54.0799 0 0 0 0
626 160 1 68.6468 -54.9175 0 0 0 0
627 160 2 68.7617 -53.9241 0 0 0 0
628 160 2 68.5319 -55.9109 0 0 0 0
629 161 1 -73.2233 -50.341 0 0 0 0
630 161 2 -72.2239 -50.3076 0 0 0 0
631 161 2 73.1899 -49.3416 0 -1 0 0
632 161 2 72.2239 -50.3744 0 -1 0 0
633 161 2 -73.1899 -51.3405 0 0 0 0
634 162 1 -68.6468 -50.341 0 0 0 0
635 162 2 -67.8017 -49.8065 0 0 0 0
636 162 2 -69.492 -50.8755 0 0 0 0
637 163 1 -64.0704 -50.341 0 0 0 0
638 163 2 -64.0016 -49.3434 0 0 0 0
639 163 2 -64.1392 -51.3386 0 0 0 0
640 164 1 -59.4939 -50.341 0 0 0 0
641 164 2 -59.5621 -51.3387 0 0 0 0
642 164 2 -59.4258 -49.3433 0 0 0 0
643 165 1 -54.9175 -50.341 0 0 0 0
644 165 2 -54.783 -49.3501 0 0 0 0
645 165 2 -55.0519 -51.3319 0 0 0 0
646 166 1 -50.341 -50.341 0 0 0 0
647 166 2 -49.9579 -49.4173 0 0 0 0
648 166 2 -50.7241 -51.2647 0 0 0 0
649 167 1 -45.7646 -50.341 0 0 0 0
650 167 2 -44.9436 -50.912 0 0 0 0
651 167 2 -45.1935 -49.5201 0 0 0 0
652 167 2 -46.5855 -49.77 0 0 0 0
653 167 2 -46.3356 -51.162 0 0 0 0
654 168 1 -41.1881 -50.341 0 0 0 0
655 168 2 -40.217 -50.1023 0 0 0 0
656 168 2 -42.1592 -50.5798 0 0 0 0
657 169 1 -36.6116 -50.341 0 0 0 0
658 169 2 -35.82 -49.7301 0 0 0 0
659 169 2 -37.4033 -50.952 0 0 0 0
660 170 1 -32.0352 -50.341 0 0 0 0
661 170 2 -32.8925 -49.8262 0 0 0 0
662 170 2 -32.55 -51.1983 0 0 0 0
663 170 2 -31.1779 -50.8558 0 0 0 0
664 170 2 -31.5204 -49.4837 0 0 0 0
665 171 1 -27.4587 -50.341 0 0 0 0
666 171 2 -27.4229 -49.3417 0 0 0 0
667 171 2 -27.4945 -51.3404 0 0 0 0
668 172 1 -22.8823 -50.341 0 0 0 0
669 172 2 -23.797 -49.937 0 0 0 0
670 172 2 -23.2863 -51.2558 0 0 0 0
671 172 2 -21.9675 -50.745 0 0 0 0
672 172 2 -22.4783 -49.4263 0 0 0 0
673 173 1 -18.3058 -50.341 0 0 0 0
674 173 2 -18.9868 -51.0733 0 0 0 0
675 173 2 -17.5736 -51.022 0 0 0 0
676 173 2 -17.6248 -49.6088 0 0 0 0
677 173 2 -19.0381 -49.66 0 0 0 0
678 174 1 -13.7294 -50.341 0 0 0 0
679 174 2 -13.4339 -51.2964 0 0 0 0
680 174 2 -14.0249 -49.3857 0 0 0 0
681 175 1 -9.15291 -50.341 0 0 0 0
682 175 2 -9.33891 -49.3585 0 0 0 0
683 175 2 -8.96691 -51.3236 0 0 0 0
684 176 1 -4.57646 -50.341 0 0 0 0
685 176 2 -5.08398 -49.4794 0 0 0 0
686 176 2 -4.06893 -51.2027 0 0 0 0
687 177 1 0 -50.341 0 0 0 0
688 177 2 0.671233 -49.5998 0 0 0 0
689 177 2 -0.671233 -51.0823 0 0 0 0
690 178 1 4.57646 -50.341 0 0 0 0
691 178 2 4.16015 -51.2502 0 0 0 0
692 178 2 4.99277 -49.4318 0 0 0 0
693 179 1 9.15291 -50.341 0 0 0 0
694 179 2 9.95831 -49.7483 0 0 0 0
695 179 2 8.34751 -50.9337 0 0 0 0
696 180 1 13.7294 -50.341 0 0 0 0
697 180 2 12.7402 -50.4878 0 0 0 0
698 180 2 14.7185 -50.1942 0 0 0 0
699 181 1 18.3058 -50.341 0 0 0 0
700 181 2 17.5626 -49.672 0 0 0 0
701 181 2 17.6368 -51.0843 0 0 0 0
702 181 2 19.0491 -51.01 0 0 0 0
703 181 2 18.9748 -49.5977 0 0 0 0
704 182 1 22.8823 -50.341 0 0 0 0
705 182 2 23.6699 -49.7248 0 0 0 0
706 182 2 22.0947 -50.9572 0 0 0 0
707 183 1 27.4587 -50.341 0 0 0 0
708 183 2 26.839 -49.5562 0 0 0 0
709 183 2 26.674 -50.9608 0 0 0 0
710 183 2 28.0785 -51.1258 0 0 0 0
711 183 2 28.2435 -49.7212 0 0 0 0
712 184 1 32.0352 -50.341 0 0 0 0
713 184 2 31.2367 -49.7391 0 0 0 0
714 184 2 32.8337 -50.943 0 0 0 0
715 185 1 36.6116 -50.341 0 0 0 0
716 185 2 35.6167 -50.2411 0 0 0 0
717 185 2 36.5118 -51.336 0 0 0 0
718 185 2 37.6066 -50.4409 0 0 0 0
719 185 2 36.7115 -49.346 0 0 0 0
720 186 1 41.1881 -50.341 0 0 0 0
721 186 2 42.0905 -50.7719 0 0 0 0
722 186 2 40.2857 -49.9101 0 0 0 0
723 187 1 45.7646 -50.341 0 0 0 0
724 187 2 46.7478 -50.1586 0 0 0 0
725 187 2 44.7813 -50.5234 0 0 0 0
726 188 1 50.341 -50.341 0 0 0 0
727 188 2 49.3839 -50.0513 0 0 0 0
728 188 2 51.2981 -50.6308 0 0 0 0
729 189 1 54.9175 -50.341 0 0 0 0
730 189 2 55.8019 -49.8743 0 0 0 0
731 189 2 54.0331 -50.8077 0 0 0 0
732 190 1 59.4939 -50.341 0 0 0 0
733 190 2 59.3558 -51.3314 0 0 0 0
734 190 2 60.4843 -50.4791 0 0 0 0
735 190 2 59.632 -49.3506 0 0 0 0
736 190 2 58.5035 -50.2029 0 0 0 0
737 191 1 64.0704 -50.341 0 0 0 0
738 191 2 63.4587 -49.5499 0 0 0 0
739 191 2 64.6821 -51.1321 0 0 0 0
740 192 1 68.6468 -50.341 0 0 0 0
741 192 2 68.0652 -51.1545 0 0 0 0
742 192 2 69.4603 -50.9226 0 0 0 0
743 192 2 69.2284 -49.5275 0 0 0 0
744 192 2 67.8334 -49.7594 0 0 0 0
745 193 1 -73.2233 -45.7646 0 0 0 0
746 193 2 -72.6972 -44.9142 0 0 0 0
747 193 2 72.6972 -46.615 0 -1 0 0
748 194 1 -68.6468 -45.7646 0 0 0 0
749 194 2 -69.007 -46.6975 0 0 0 0
750 194 2 -68.2867 -44.8317 0 0 0 0
751 195 1 -64.0704 -45.7646 0 0 0 0
752 195 2 -63.505 -44.9398 0 0 0 0
753 195 2 -64.8952 -45.1991 0 0 0 0
754 195 2 -64.6358 -46.5894 0 0 0 0
755 195 2 -63.2456 -46.33 0 0 0 0
756 196 1 -59.4939 -45.7646 0 0 0 0
757 196 2 -60.1313 -46.5352 0 0 0 0
758 196 2 -58.8566 -44.994 0 0 0 0
759 197 1 -54.9175 -45.7646 0 0 0 0
760 197 2 -55.6138 -45.0469 0 0 0 0
761 197 2 -54.2211 -46.4822 0 0 0 0
762 198 1 -50.341 -45.7646 0 0 0 0
763 198 2 -49.9137 -46.6686 0 0 0 0
764 198 2 -50.7684 -44.8605 0 0 0 0
765 199 1 -45.7646 -45.7646 0 0 0 0
766 199 2 -46.6897 -45.385 0 0 0 0
767 199 2 -44.8394 -46.1442 0 0 0 0
768 200 1 -41.1881 -45.7646 0 0 0 0
769 200 2 -40.1905 -45.834 0 0 0 0
770 200 2 -42.1857 -45.6951 0 0 0 0
771 201 1 -36.6116 -45.7646 0 0 0 0
772 201 2 -36.0595 -44.9308 0 0 0 0
773 201 2 -37.4454 -45.2124 0 0 0 0
774 201 2 -37.1638 -46.5983 0 0 0 0
775 201 2 -35.7779 -46.3168 0 0 0 0
776 202 1 -32.0352 -45.7646 0 0 0 0
777 202 2 -31.3323 -45.0532 0 0 0 0
778 202 2 -32.7465 -45.0617 0 0 0 0
779 202 2 -32.7381 -46.4759 0 0 0 0
780 202 2 -31.3239 -46.4674 0 0 0 0
781 203 1 -27.4587 -45.7646 0 0 0 0
782 203 2 -28.4437 -45.9372 0 0 0 0
783 203 2 -27.2861 -46.7495 0 0 0 0
784 203 2 -26.4738 -45.5919 0 0 0 0
785 203 2 -27.6314 -44.7796 0 0 0 0
786 204 1 -22.8823 -45.7646 0 0 0 0
787 204 2 -23.8785 -45.6782 0 0 0 0
788 204 2 -22.9686 -46.7608 0 0 0 0
789 204 2 -21.886 -45.8509 0 0 0 0
790 204 2 -22.796 -44.7683 0 0 0 0
791 205 1 -18.3058 -45.7646 0 0 0 0
792 205 2 -19.1258 -46.337 0 0 0 0
793 205 2 -17.4859 -45.1921 0 0 0 0
794 206 1 -13.7294 -45.7646 0 0 0 0
795 206 2 -14.2697 -46.606 0 0 0 0
796 206 2 -12.8879 -46.3049 0 0 0 0
797 206 2 -13.189 -44.9231 0 0 0 0
798 206 2 -14.5708 -45.2242 0 0 0 0
799 207 1 -9.15291 -45.7646 0 0 0 0
800 207 2 -8.19595 -46.0548 0 0 0 0
801 207 2 -8.86269 -44.8076 0 0 0 0
802 207 2 -10.1099 -45.4743 0 0 0 0
803 207 2 -9.44314 -46.7215 0 0 0 0
804 208 1 -4.57646 -45.7646 0 0 0 0
805 208 2 -5.12822 -46.5986 0 0 0 0
806 208 2 -4.02469 -44.9306 0 0 0 0
807 209 1 0 -45.7646 0 0 0 0
808 209 2 0.779644 -45.1383 0 0 0 0
809 209 2 -0.779644 -46.3908 0 0 0 0
810 210 1 4.57646 -45.7646 0 0 0 0
811 210 2 3.65837 -45.3682 0 0 0 0
812 210 2 5.49454 -46.1609 0 0 0 0
813 211 1 9.15291 -45.7646 0 0 0 0
814 211 2 9.46084 -44.8132 0 0 0 0
815 211 2 8.84499 -46.716 0 0 0 0
816 212 1 13.7294 -45.7646 0 0 0 0
817 212 2 14.2829 -44.9317 0 0 0 0
818 212 2 13.1758 -46.5974 0 0 0 0
819 213 1 18.3058 -45.7646 0 0 0 0
820 213 2 18.2299 -46.7617 0 0 0 0
821 213 2 18.3818 -44.7674 0 0 0 0
822 214 1 22.8823 -45.7646 0 0 0 0
823 214 2 23.4163 -44.9191 0 0 0 0
824 214 2 22.3483 -46.6101 0 0 0 0
825 215 1 27.4587 -45.7646 0 0 0 0
826 215 2 26.7341 -45.0754 0 0 0 0
827 215 2 26.7696 -46.4892 0 0 0 0
828 215 2 28.1834 -46.4537 0 0 0 0
829 215 2 28.1479 -45.0399 0 0 0 0
830 216 1 32.0352 -45.7646 0 0 0 0
831 216 2 32.9431 -46.1838 0 0 0 0
832 216 2 31.1273 -45.3453 0 0 0 0
833 217 1 36.6116 -45.7646 0 0 0 0
834 217 2 36.0675 -44.9256 0 0 0 0
835 217 2 35.7727 -46.3087 0 0 0 0
836 217 2 37.1558 -46.6036 0 0 0 0
837 217 2 37.4506 -45.2204 0 0 0 0
838 218 1 41.1881 -45.7646 0 0 0 0
839 218 2 40.2128 -45.9855 0 0 0 0
840 218 2 41.4091 -46.7398 0 0 0 0
841 218 2 42.1634 -45.5436 0 0 0 0
842 218 2 40.9671 -44.7893 0 0 0 0
843 219 1 45.7646 -45.7646 0 0 0 0
844 219 2 45.609 -46.7524 0 0 0 0
845 219 2 45.9202 -44.7767 0 0 0 0
846 220 1 50.341 -45.7646 0 0 0 0
847 220 2 49.6837 -45.0109 0 0 0 0
848 220 2 50.9983 -46.5182 0 0 0 0
849 221 1 54.9175 -45.7646 0 0 0 0
850 221 2 54.4081 -46.6251 0 0 0 0
851 221 2 55.4269 -44.904 0 0 0 0
852 222 1 59.4939 -45.7646 0 0 0 0
853 222 2 60.1225 -44.9868 0 0 0 0
854 222 2 58.7162 -45.136 0 0 0 0
855 222 2 58.8653 -46.5423 0 0 0 0
856 222 2 60.2717 -46.3932 0 0 0 0
857 223 1 64.0704 -45.7646 0 0 0 0
858 223 2 63.1087 -46.0387 0 0 0 0
859 223 2 64.3445 -46.7263 0 0 0 0
860 223 2 65.0321 -45.4905 0 0 0 0
861 223 2 63.7963 -44.8029 0 0 0 0