LAMMPS data file for Nanoparticles
4608 atoms
2 atom types
-73.2232986291 73.2232986291 xlo xhi
-73.2232986291 73.2232986291 ylo yhi
-0.5 0.5 zlo zhi

Atoms

1 1 1 -73.2233 -73.2233 0 0 0 0
2 1 2 -72.6253 -72.4218 0 0 0 0
3 1 2 72.6253 72.4218 0 -1 -1 0
4 2 1 -68.6468 -73.2233 0 0 0 0
5 2 2 -69.1269 72.3461 0 0 -1 0
6 2 2 -67.7696 72.7432 0 0 -1 0
7 2 2 -68.1668 -72.3461 0 0 0 0
8 2 2 -69.5241 -72.7432 0 0 0 0
9 3 1 -64.0704 -73.2233 0 0 0 0
10 3 2 -64.5897 -72.3687 0 0 0 0
11 3 2 -64.925 72.704 0 0 -1 0
12 3 2 -63.5511 72.3687 0 0 -1 0
13 3 2 -63.2158 -72.704 0 0 0 0
14 4 1 -59.4939 -73.2233 0 0 0 0
15 4 2 -58.7564 -72.548 0 0 0 0
16 4 2 -60.2314 72.548 0 0 -1 0
17 5 1 -54.9175 -73.2233 0 0 0 0
18 5 2 -55.9051 -73.0666 0 0 0 0
19 5 2 -55.0742 72.2357 0 0 -1 0
20 5 2 -53.9298 73.0666 0 0 -1 0
21 5 2 -54.7607 -72.2357 0 0 0 0
22 6 1 -50.341 -73.2233 0 0 0 0
23 6 2 -51.2314 -72.7682 0 0 0 0
24 6 2 -50.7961 72.3329 0 0 -1 0
25 6 2 -49.4506 72.7682 0 0 -1 0
26 6 2 -49.8859 -72.3329 0 0 0 0
27 7 1 -45.7646 -73.2233 0 0 0 0
28 7 2 -46.727 -72.9517 0 0 0 0
29 7 2 -44.8021 72.9517 0 0 -1 0
30 8 1 -41.1881 -73.2233 0 0 0 0
31 8 2 -41.7637 -72.4056 0 0 0 0
32 8 2 -40.6125 72.4056 0 0 -1 0
33 9 1 -36.6116 -73.2233 0 0 0 0
34 9 2 -36.8646 -72.2558 0 0 0 0
35 9 2 -37.5791 72.9704 0 0 -1 0
36 9 2 -36.3587 72.2558 0 0 -1 0
37 9 2 -35.6442 -72.9704 0 0 0 0
38 10 1 -32.0352 -73.2233 0 0 0 0
39 10 2 -31.0843 72.9138 0 0 -1 0
40 10 2 -31.7257 -72.2724 0 0 0 0
41 10 2 -32.9861 -72.9138 0 0 0 0
42 10 2 -32.3447 72.2724 0 0 -1 0
43 11 1 -27.4587 -73.2233 0 0 0 0
44 11 2 -26.5163 72.889 0 0 -1 0
45 11 2 -27.1244 -72.2808 0 0 0 0
46 11 2 -28.4012 -72.889 0 0 0 0
47 11 2 -27.7931 72.2808 0 0 -1 0
48 12 1 -22.8823 -73.2233 0 0 0 0
49 12 2 -23.4648 72.4105 0 0 -1 0
50 12 2 -22.0695 72.6408 0 0 -1 0
51 12 2 -22.2998 -72.4105 0 0 0 0
52 12 2 -23.6951 -72.6408 0 0 0 0
53 13 1 -18.3058 -73.2233 0 0 0 0
54 13 2 -18.1315 -72.2386 0 0 0 0
55 13 2 -19.2905 -73.049 0 0 0 0
56 13 2 -18.4801 72.2386 0 0 -1 0
57 13 2 -17.3211 73.049 0 0 -1 0
58 14 1 -13.7294 -73.2233 0 0 0 0
59 14 2 -14.6327 72.7944 0 0 -1 0
60 14 2 -12.826 -72.7944 0 0 0 0
61 15 1 -9.15291 -73.2233 0 0 0 0
62 15 2 -10.0268 72.7372 0 0 -1 0
63 15 2 -8.27902 -72.7372 0 0 0 0
64 16 1 -4.57646 -73.2233 0 0 0 0
65 16 2 -3.65261 72.8405 0 0 -1 0
66 16 2 -4.19369 -72.2995 0 0 0 0
67 16 2 -5.5003 -72.8405 0 0 0 0
68 16 2 -4.95922 72.2995 0 0 -1 0
69 17 1 0 -73.2233 0 0 0 0
70 17 2 -0.967351 -72.9699 0 0 0 0
71 17 2 -0.253442 72.2559 0 0 -1 0
72 17 2 0.967351 72.9699 0 0 -1 0
73 17 2 0.253442 -72.2559 0 0 0 0
74 18 1 4.57646 -73.2233 0 0 0 0
75 18 2 4.66044 -72.2268 0 0 0 0
76 18 2 4.49247 72.2268 0 0 -1 0
77 19 1 9.15291 -73.2233 0 0 0 0
78 19 2 9.60019 -72.3289 0 0 0 0
79 19 2 8.25852 -72.776 0 0 0 0
80 19 2 8.70564 72.3289 0 0 -1 0
81 19 2 10.0473 72.776 0 0 -1 0
82 20 1 13.7294 -73.2233 0 0 0 0
83 20 2 13.0408 -72.4982 0 0 0 0
84 20 2 13.0042 72.5347 0 0 -1 0
85 20 2 14.418 72.4982 0 0 -1 0
86 20 2 14.4545 -72.5347 0 0 0 0
87 21 1 18.3058 -73.2233 0 0 0 0
88 21 2 17.3438 -72.9502 0 0 0 0
89 21 2 19.2678 72.9502 0 0 -1 0
90 22 1 22.8823 -73.2233 0 0 0 0
91 22 2 23.2866 72.3087 0 0 -1 0
92 22 2 23.7969 -72.8189 0 0 0 0
93 22 2 22.4779 -72.3087 0 0 0 0
94 22 2 21.9677 72.8189 0 0 -1 0
95 23 1 27.4587 -73.2233 0 0 0 0
96 23 2 28.3987 72.8819 0 0 -1 0
97 23 2 26.5188 -72.8819 0 0 0 0
98 24 1 32.0352 -73.2233 0 0 0 0
99 24 2 32.341 72.2712 0 0 -1 0
100 24 2 31.7294 -72.2712 0 0 0 0
101 25 1 36.6116 -73.2233 0 0 0 0
102 25 2 36.4779 -72.2323 0 0 0 0
103 25 2 35.6206 73.0895 0 0 -1 0
104 25 2 36.7454 72.2323 0 0 -1 0
105 25 2 37.6027 -73.0895 0 0 0 0
106 26 1 41.1881 -73.2233 0 0 0 0
107 26 2 41.2748 72.2271 0 0 -1 0
108 26 2 42.1843 -73.1366 0 0 0 0
109 26 2 41.1014 -72.2271 0 0 0 0
110 26 2 40.1919 73.1366 0 0 -1 0
111 27 1 45.7646 -73.2233 0 0 0 0
112 27 2 45.5929 72.2381 0 0 -1 0
113 27 2 45.9363 -72.2381 0 0 0 0
114 28 1 50.341 -73.2233 0 0 0 0
115 28 2 50.1741 -72.2373 0 0 0 0
116 28 2 49.355 73.0564 0 0 -1 0
117 28 2 50.5079 72.2373 0 0 -1 0
118 28 2 51.327 -73.0564 0 0 0 0
119 29 1 54.9175 -73.2233 0 0 0 0
120 29 2 54.2582 -72.4714 0 0 0 0
121 29 2 54.1656 72.564 0 0 -1 0
122 29 2 55.5768 72.4714 0 0 -1 0
123 29 2 55.6694 -72.564 0 0 0 0
124 30 1 59.4939 -73.2233 0 0 0 0
125 30 2 60.3401 -72.6904 0 0 0 0
126 30 2 58.961 -72.3771 0 0 0 0
127 30 2 58.6478 72.6904 0 0 -1 0
128 30 2 60.0268 72.3771 0 0 -1 0
129 31 1 64.0704 -73.2233 0 0 0 0
130 31 2 63.3104 -72.5733 0 0 0 0
131 31 2 63.4204 72.4633 0 0 -1 0
132 31 2 64.8304 72.5733 0 0 -1 0
133 31 2 64.7203 -72.4633 0 0 0 0
134 32 1 68.6468 -73.2233 0 0 0 0
135 32 2 69.6367 -73.0814 0 0 0 0
136 32 2 67.657 73.0814 0 0 -1 0
137 33 1 -73.2233 -68.6468 0 0 0 0
138 33 2 -72.3624 -68.1381 0 0 0 0
139 33 2 72.7145 -67.7859 0 -1 0 0
140 33 2 72.3624 -69.1556 0 -1 0 0
141 33 2 -72.7145 -69.5078 0 0 0 0
142 34 1 -68.6468 -68.6468 0 0 0 0
143 34 2 -67.8993 -69.3111 0 0 0 0
144 34 2 -69.3943 -67.9826 0 0 0 0
145 35 1 -64.0704 -68.6468 0 0 0 0
146 35 2 -63.2468 -68.0797 0 0 0 0
147 35 2 -64.894 -69.214 0 0 0 0
148 36 1 -59.4939 -68.6468 0 0 0 0
149 36 2 -60.3561 -68.1402 0 0 0 0
150 36 2 -60.0005 -69.509 0 0 0 0
151 36 2 -58.6317 -69.1534 0 0 0 0
152 36 2 -58.9873 -67.7847 0 0 0 0
153 37 1 -54.9175 -68.6468 0 0 0 0
154 37 2 -55.7932 -69.1296 0 0 0 0
155 37 2 -54.4347 -69.5226 0 0 0 0
156 37 2 -54.0417 -68.1641 0 0 0 0
157 37 2 -55.4002 -67.7711 0 0 0 0
158 38 1 -50.341 -68.6468 0 0 0 0
159 38 2 -49.5091 -68.092 0 0 0 0
160 38 2 -50.8959 -67.8149 0 0 0 0
161 38 2 -51.173 -69.2017 0 0 0 0
162 38 2 -49.7862 -69.4788 0 0 0 0
163 39 1 -45.7646 -68.6468 0 0 0 0
164 39 2 -45.1886 -67.8294 0 0 0 0
165 39 2 -46.582 -68.0709 0 0 0 0
166 39 2 -46.3405 -69.4643 0 0 0 0
167 39 2 -44.9471 -69.2228 0 0 0 0
168 40 1 -41.1881 -68.6468 0 0 0 0
169 40 2 -42.1872 -68.6905 0 0 0 0
170 40 2 -41.1444 -69.6459 0 0 0 0
171 40 2 -40.1891 -68.6032 0 0 0 0
172 40 2 -41.2318 -67.6478 0 0 0 0
173 41 1 -36.6116 -68.6468 0 0 0 0
174 41 2 -37.5765 -68.9097 0 0 0 0
175 41 2 -35.6468 -68.384 0 0 0 0
176 42 1 -32.0352 -68.6468 0 0 0 0
177 42 2 -32.7437 -67.9411 0 0 0 0
178 42 2 -32.7409 -69.3553 0 0 0 0
179 42 2 -31.3267 -69.3526 0 0 0 0
180 42 2 -31.3295 -67.9384 0 0 0 0
181 43 1 -27.4587 -68.6468 0 0 0 0
182 43 2 -28.0323 -67.8276 0 0 0 0
183 43 2 -28.2779 -69.2204 0 0 0 0
184 43 2 -26.8852 -69.466 0 0 0 0
185 43 2 -26.6395 -68.0733 0 0 0 0
186 44 1 -22.8823 -68.6468 0 0 0 0
187 44 2 -23.7583 -68.1645 0 0 0 0
188 44 2 -23.3646 -69.5228 0 0 0 0
189 44 2 -22.0063 -69.1292 0 0 0 0
190 44 2 -22.3999 -67.7709 0 0 0 0
191 45 1 -18.3058 -68.6468 0 0 0 0
192 45 2 -17.3935 -68.2373 0 0 0 0
193 45 2 -19.2181 -69.0564 0 0 0 0
194 46 1 -13.7294 -68.6468 0 0 0 0
195 46 2 -13.307 -67.7404 0 0 0 0
196 46 2 -14.1517 -69.5533 0 0 0 0
197 47 1 -9.15291 -68.6468 0 0 0 0
198 47 2 -8.583 -67.8251 0 0 0 0
199 47 2 -9.97462 -68.0769 0 0 0 0
200 47 2 -9.72282 -69.4685 0 0 0 0
201 47 2 -8.33121 -69.2168 0 0 0 0
202 48 1 -4.57646 -68.6468 0 0 0 0
203 48 2 -3.61608 -68.3681 0 0 0 0
204 48 2 -4.85517 -67.6865 0 0 0 0
205 48 2 -5.53683 -68.9256 0 0 0 0
206 48 2 -4.29774 -69.6072 0 0 0 0
207 49 1 0 -68.6468 0 0 0 0
208 49 2 0.687019 -67.9202 0 0 0 0
209 49 2 -0.687019 -69.3735 0 0 0 0
210 50 1 4.57646 -68.6468 0 0 0 0
211 50 2 5.42285 -69.1794 0 0 0 0
212 50 2 5.10901 -67.8004 0 0 0 0
213 50 2 3.73006 -68.1143 0 0 0 0
214 50 2 4.0439 -69.4932 0 0 0 0
215 51 1 9.15291 -68.6468 0 0 0 0
216 51 2 9.96413 -69.2316 0 0 0 0
217 51 2 9.73766 -67.8356 0 0 0 0
218 51 2 8.3417 -68.0621 0 0 0 0
219 51 2 8.56816 -69.4581 0 0 0 0
220 52 1 13.7294 -68.6468 0 0 0 0
221 52 2 13.8047 -67.6497 0 0 0 0
222 52 2 12.7322 -68.5715 0 0 0 0
223 52 2 13.654 -69.644 0 0 0 0
224 52 2 14.7265 -68.7222 0 0 0 0
225 53 1 18.3058 -68.6468 0 0 0 0
226 53 2 19.2041 -69.0862 0 0 0 0
227 53 2 17.4075 -68.2075 0 0 0 0
228 54 1 22.8823 -68.6468 0 0 0 0
229 54 2 22.5482 -67.7043 0 0 0 0
230 54 2 21.9397 -68.9809 0 0 0 0
231 54 2 23.2164 -69.5894 0 0 0 0
232 54 2 23.8248 -68.3128 0 0 0 0
233 55 1 27.4587 -68.6468 0 0 0 0
234 55 2 26.4912 -68.394 0 0 0 0
235 55 2 27.2059 -69.6144 0 0 0 0
236 55 2 28.4263 -68.8996 0 0 0 0
237 55 2 27.7115 -67.6793 0 0 0 0
238 56 1 32.0352 -68.6468 0 0 0 0
239 56 2 31.7046 -67.7031 0 0 0 0
240 56 2 31.0914 -68.9774 0 0 0 0
241 56 2 32.3657 -69.5906 0 0 0 0
242 56 2 32.979 -68.3163 0 0 0 0
243 57 1 36.6116 -68.6468 0 0 0 0
244 57 2 37.4071 -69.2528 0 0 0 0
245 57 2 35.8162 -68.0409 0 0 0 0
246 58 1 41.1881 -68.6468 0 0 0 0
247 58 2 40.1926 -68.7413 0 0 0 0
248 58 2 42.1836 -68.5524 0 0 0 0
249 59 1 45.7646 -68.6468 0 0 0 0
250 59 2 44.7693 -68.55 0 0 0 0
251 59 2 46.7599 -68.7437 0 0 0 0
252 60 1 50.341 -68.6468 0 0 0 0
253 60 2 49.4622 -69.1239 0 0 0 0
254 60 2 50.8181 -69.5257 0 0 0 0
255 60 2 51.2199 -68.1697 0 0 0 0
256 60 2 49.8639 -67.768 0 0 0 0
257 61 1 54.9175 -68.6468 0 0 0 0
258 61 2 54.8142 -69.6415 0 0 0 0
259 61 2 55.0207 -67.6522 0 0 0 0
260 62 1 59.4939 -68.6468 0 0 0 0
261 62 2 58.9999 -69.5163 0 0 0 0
262 62 2 59.988 -67.7774 0 0 0 0
263 63 1 64.0704 -68.6468 0 0 0 0
264 63 2 64.9797 -69.0629 0 0 0 0
265 63 2 63.161 -68.2308 0 0 0 0
266 64 1 68.6468 -68.6468 0 0 0 0
267 64 2 69.2902 -67.8813 0 0 0 0
268 64 2 68.0035 -69.4124 0 0 0 0
269 65 1 -73.2233 -64.0704 0 0 0 0
270 65 2 -73.1903 -63.0709 0 0 0 0
271 65 2 72.2238 -64.0374 0 -1 0 0
272 65 2 73.1903 -65.0698 0 -1 0 0
273 65 2 -72.2238 -64.1034 0 0 0 0
274 66 1 -68.6468 -64.0704 0 0 0 0
275 66 2 -69.638 -64.203 0 0 0 0
276 66 2 -68.5142 -65.0616 0 0 0 0
277 66 2 -67.6557 -63.9378 0 0 0 0
278 66 2 -68.7794 -63.0792 0 0 0 0
279 67 1 -64.0704 -64.0704 0 0 0 0
280 67 2 -63.2665 -63.4756 0 0 0 0
281 67 2 -64.6651 -63.2665 0 0 0 0
282 67 2 -64.8743 -64.6651 0 0 0 0
283 67 2 -63.4756 -64.8743 0 0 0 0
284 68 1 -59.4939 -64.0704 0 0 0 0
285 68 2 -58.6819 -64.654 0 0 0 0
286 68 2 -58.9103 -63.2583 0 0 0 0
287 68 2 -60.306 -63.4868 0 0 0 0
288 68 2 -60.0775 -64.8824 0 0 0 0
289 69 1 -54.9175 -64.0704 0 0 0 0
290 69 2 -55.901 -63.8897 0 0 0 0
291 69 2 -55.0982 -65.0539 0 0 0 0
292 69 2 -53.9339 -64.2511 0 0 0 0
293 69 2 -54.7368 -63.0869 0 0 0 0
294 70 1 -50.341 -64.0704 0 0 0 0
295 70 2 -51.3365 -63.9752 0 0 0 0
296 70 2 -50.4362 -65.0658 0 0 0 0
297 70 2 -49.3456 -64.1656 0 0 0 0
298 70 2 -50.2458 -63.0749 0 0 0 0
299 71 1 -45.7646 -64.0704 0 0 0 0
300 71 2 -44.8039 -64.3482 0 0 0 0
301 71 2 -45.4868 -63.1098 0 0 0 0
302 71 2 -46.7252 -63.7926 0 0 0 0
303 71 2 -46.0424 -65.031 0 0 0 0
304 72 1 -41.1881 -64.0704 0 0 0 0
305 72 2 -41.4746 -63.1123 0 0 0 0
306 72 2 -42.1462 -64.3569 0 0 0 0
307 72 2 -40.9016 -65.0285 0 0 0 0
308 72 2 -40.23 -63.7839 0 0 0 0
309 73 1 -36.6116 -64.0704 0 0 0 0
310 73 2 -36.4348 -65.0546 0 0 0 0
311 73 2 -35.6274 -63.8935 0 0 0 0
312 73 2 -36.7885 -63.0862 0 0 0 0
313 73 2 -37.5959 -64.2473 0 0 0 0
314 74 1 -32.0352 -64.0704 0 0 0 0
315 74 2 -32.1033 -65.0681 0 0 0 0
316 74 2 -31.0375 -64.1384 0 0 0 0
317 74 2 -31.9671 -63.0727 0 0 0 0
318 74 2 -33.0329 -64.0023 0 0 0 0
319 75 1 -27.4587 -64.0704 0 0 0 0
320 75 2 -28.268 -63.4829 0 0 0 0
321 75 2 -28.0462 -64.8796 0 0 0 0
322 75 2 -26.6495 -64.6579 0 0 0 0
323 75 2 -26.8712 -63.2612 0 0 0 0
324 76 1 -22.8823 -64.0704 0 0 0 0
325 76 2 -23.3933 -64.9299 0 0 0 0
326 76 2 -22.0227 -64.5814 0 0 0 0
327 76 2 -22.3712 -63.2108 0 0 0 0
328 76 2 -23.7418 -63.5593 0 0 0 0
329 77 1 -18.3058 -64.0704 0 0 0 0
330 77 2 -19.2122 -63.6479 0 0 0 0
331 77 2 -18.7283 -64.9768 0 0 0 0
332 77 2 -17.3995 -64.4929 0 0 0 0
333 77 2 -17.8833 -63.164 0 0 0 0
334 78 1 -13.7294 -64.0704 0 0 0 0
335 78 2 -12.9132 -64.6482 0 0 0 0
336 78 2 -14.5455 -63.4926 0 0 0 0
337 79 1 -9.15291 -64.0704 0 0 0 0
338 79 2 -8.16179 -64.2033 0 0 0 0
339 79 2 -10.144 -63.9375 0 0 0 0
340 80 1 -4.57646 -64.0704 0 0 0 0
341 80 2 -5.26355 -64.797 0 0 0 0
342 80 2 -3.84988 -64.7575 0 0 0 0
343 80 2 -3.88937 -63.3438 0 0 0 0
344 80 2 -5.30303 -63.3833 0 0 0 0
345 81 1 0 -64.0704 0 0 0 0
346 81 2 -0.146662 -65.0596 0 0 0 0
347 81 2 0.989187 -64.217 0 0 0 0
348 81 2 0.146662 -63.0812 0 0 0 0
349 81 2 -0.989187 -63.9237 0 0 0 0
350 82 1 4.57646 -64.0704 0 0 0 0
351 82 2 3.61001 -64.3273 0 0 0 0
352 82 2 4.83333 -65.0368 0 0 0 0
353 82 2 5.5429 -63.8135 0 0 0 0
354 82 2 4.31958 -63.1039 0 0 0 0
355 83 1 9.15291 -64.0704 0 0 0 0
356 83 2 8.28574 -63.5724 0 0 0 0
357 83 2 8.65491 -64.9376 0 0 0 0
358 83 2 10.0201 -64.5684 0 0 0 0
359 83 2 9.65092 -63.2032 0 0 0 0
360 84 1 13.7294 -64.0704 0 0 0 0
361 84 2 14.1295 -64.9868 0 0 0 0
362 84 2 14.6458 -63.6702 0 0 0 0
363 84 2 13.3292 -63.1539 0 0 0 0
364 84 2 12.8129 -64.4705 0 0 0 0
365 85 1 18.3058 -64.0704 0 0 0 0
366 85 2 17.5545 -63.4105 0 0 0 0
367 85 2 17.6459 -64.8217 0 0 0 0
368 85 2 19.0572 -64.7303 0 0 0 0
369 85 2 18.9657 -63.319 0 0 0 0
370 86 1 22.8823 -64.0704 0 0 0 0
371 86 2 23.7554 -64.558 0 0 0 0
372 86 2 22.0092 -63.5828 0 0 0 0
373 87 1 27.4587 -64.0704 0 0 0 0
374 87 2 28.4098 -63.7613 0 0 0 0
375 87 2 27.1496 -63.1194 0 0 0 0
376 87 2 26.5077 -64.3795 0 0 0 0
377 87 2 27.7679 -65.0214 0 0 0 0
378 88 1 32.0352 -64.0704 0 0 0 0
379 88 2 32.028 -65.0704 0 0 0 0
380 88 2 32.0424 -63.0704 0 0 0 0
381 89 1 36.6116 -64.0704 0 0 0 0
382 89 2 36.2148 -64.9883 0 0 0 0
383 89 2 37.5295 -64.4673 0 0 0 0
384 89 2 37.0085 -63.1525 0 0 0 0
385 89 2 35.6938 -63.6735 0 0 0 0
386 90 1 41.1881 -64.0704 0 0 0 0
387 90 2 42.1881 -64.0621 0 0 0 0
388 90 2 41.1798 -63.0704 0 0 0 0
389 90 2 40.1881 -64.0787 0 0 0 0
390 90 2 41.1964 -65.0704 0 0 0 0
391 91 1 45.7646 -64.0704 0 0 0 0
392 91 2 46.7441 -63.8689 0 0 0 0
393 91 2 45.5631 -63.0909 0 0 0 0
394 91 2 44.7851 -64.2719 0 0 0 0
395 91 2 45.966 -65.0499 0 0 0 0
396 92 1 50.341 -64.0704 0 0 0 0
397 92 2 51.0326 -63.3481 0 0 0 0
398 92 2 49.6188 -63.3788 0 0 0 0
399 92 2 49.6494 -64.7926 0 0 0 0
400 92 2 51.0633 -64.762 0 0 0 0
401 93 1 54.9175 -64.0704 0 0 0 0
402 93 2 54.8952 -65.0701 0 0 0 0
403 93 2 55.9172 -64.0926 0 0 0 0
404 93 2 54.9397 -63.0706 0 0 0 0
405 93 2 53.9177 -64.0481 0 0 0 0
406 94 1 59.4939 -64.0704 0 0 0 0
407 94 2 60.4106 -63.6708 0 0 0 0
408 94 2 58.5772 -64.47 0 0 0 0
409 95 1 64.0704 -64.0704 0 0 0 0
410 95 2 63.217 -64.5916 0 0 0 0
411 95 2 64.5916 -64.9238 0 0 0 0
412 95 2 64.9238 -63.5491 0 0 0 0
413 95 2 63.5491 -63.217 0 0 0 0
414 96 1 68.6468 -64.0704 0 0 0 0
415 96 2 69.4629 -64.6484 0 0 0 0
416 96 2 69.2248 -63.2543 0 0 0 0
417 96 2 67.8308 -63.4924 0 0 0 0
418 96 2 68.0688 -64.8864 0 0 0 0
419 97 1 -73.2233 -59.4939 0 0 0 0
420 97 2 -72.3757 -60.0245 0 0 0 0
421 97 2 72.3757 -58.9633 0 -1 0 0
422 98 1 -68.6468 -59.4939 0 0 0 0
423 98 2 -67.8958 -58.8337 0 0 0 0
424 98 2 -69.3979 -60.1542 0 0 0 0
425 99 1 -64.0704 -59.4939 0 0 0 0
426 99 2 -63.2612 -58.9064 0 0 0 0
427 99 2 -64.8796 -60.0814 0 0 0 0
428 100 1 -59.4939 -59.4939 0 0 0 0
429 100 2 -59.6995 -60.4726 0 0 0 0
430 100 2 -58.5153 -59.6995 0 0 0 0
431 100 2 -59.2884 -58.5153 0 0 0 0
432 100 2 -60.4726 -59.2884 0 0 0 0
433 101 1 -54.9175 -59.4939 0 0 0 0
434 101 2 -54.1579 -60.1444 0 0 0 0
435 101 2 -54.267 -58.7344 0 0 0 0
436 101 2 -55.677 -58.8435 0 0 0 0
437 101 2 -55.5679 -60.2535 0 0 0 0
438 102 1 -50.341 -59.4939 0 0 0 0
439 102 2 -51.3404 -59.4584 0 0 0 0
440 102 2 -50.3766 -60.4933 0 0 0 0
441 102 2 -49.3416 -59.5295 0 0 0 0
442 102 2 -50.3055 -58.4946 0 0 0 0
443 103 1 -45.7646 -59.4939 0 0 0 0
444 103 2 -46.1288 -58.5626 0 0 0 0
445 103 2 -46.6959 -59.8582 0 0 0 0
446 103 2 -45.4003 -60.4252 0 0 0 0
447 103 2 -44.8333 -59.1297 0 0 0 0
448 104 1 -41.1881 -59.4939 0 0 0 0
449 104 2 -41.5886 -60.4102 0 0 0 0
450 104 2 -40.2718 -59.8944 0 0 0 0
451 104 2 -40.7876 -58.5776 0 0 0 0
452 104 2 -42.1044 -59.0934 0 0 0 0
453 105 1 -36.6116 -59.4939 0 0 0 0
454 105 2 -35.6749 -59.144 0 0 0 0
455 105 2 -36.9616 -58.5572 0 0 0 0
456 105 2 -37.5484 -59.8439 0 0 0 0
457 105 2 -36.2617 -60.4307 0 0 0 0
458 106 1 -32.0352 -59.4939 0 0 0 0
459 106 2 -32.3945 -58.5607 0 0 0 0
460 106 2 -32.9684 -59.8532 0 0 0 0
461 106 2 -31.6759 -60.4272 0 0 0 0
462 106 2 -31.102 -59.1346 0 0 0 0
463 107 1 -27.4587 -59.4939 0 0 0 0
464 107 2 -26.6195 -60.0378 0 0 0 0
465 107 2 -26.9149 -58.6547 0 0 0 0
466 107 2 -28.2979 -58.9501 0 0 0 0
467 107 2 -28.0026 -60.3331 0 0 0 0
468 108 1 -22.8823 -59.4939 0 0 0 0
469 108 2 -22.0314 -60.0192 0 0 0 0
470 108 2 -23.7332 -58.9686 0 0 0 0
471 109 1 -18.3058 -59.4939 0 0 0 0
472 109 2 -19.2861 -59.6916 0 0 0 0
473 109 2 -18.1081 -60.4742 0 0 0 0
474 109 2 -17.3256 -59.2963 0 0 0 0
475 109 2 -18.5035 -58.5137 0 0 0 0
476 110 1 -13.7294 -59.4939 0 0 0 0
477 110 2 -14.5449 -58.9152 0 0 0 0
478 110 2 -14.3081 -60.3095 0 0 0 0
479 110 2 -12.9138 -60.0727 0 0 0 0
480 110 2 -13.1506 -58.6784 0 0 0 0
481 111 1 -9.15291 -59.4939 0 0 0 0
482 111 2 -8.54541 -58.6996 0 0 0 0
483 111 2 -9.94723 -58.8864 0 0 0 0
484 111 2 -9.76042 -60.2882 0 0 0 0
485 111 2 -8.3586 -60.1014 0 0 0 0
486 112 1 -4.57646 -59.4939 0 0 0 0
487 112 2 -5.0254 -58.6004 0 0 0 0
488 112 2 -5.47002 -59.9429 0 0 0 0
489 112 2 -4.12751 -60.3875 0 0 0 0
490 112 2 -3.6829 -59.045 0 0 0 0
491 113 1 0 -59.4939 0 0 0 0
492 113 2 -0.685539 -60.222 0 0 0 0
493 113 2 0.685539 -58.7659 0 0 0 0
494 114 1 4.57646 -59.4939 0 0 0 0
495 114 2 5.39801 -58.9238 0 0 0 0
496 114 2 4.00633 -58.6724 0 0 0 0
497 114 2 3.7549 -60.0641 0 0 0 0
498 114 2 5.14658 -60.3155 0 0 0 0
499 115 1 9.15291 -59.4939 0 0 0 0
500 115 2 9.36959 -60.4702 0 0 0 0
501 115 2 10.1292 -59.2772 0 0 0 0
502 115 2 8.93623 -58.5177 0 0 0 0
503 115 2 8.17667 -59.7106 0 0 0 0
504 116 1 13.7294 -59.4939 0 0 0 0
505 116 2 13.3146 -58.584 0 0 0 0
506 116 2 12.8195 -59.9087 0 0 0 0
507 116 2 14.1442 -60.4038 0 0 0 0
508 116 2 14.6393 -59.0791 0 0 0 0
509 117 1 18.3058 -59.4939 0 0 0 0
510 117 2 17.6128 -60.2149 0 0 0 0
511 117 2 19.0268 -60.1869 0 0 0 0
512 117 2 18.9988 -58.773 0 0 0 0
513 117 2 17.5849 -58.8009 0 0 0 0
514 118 1 22.8823 -59.4939 0 0 0 0
515 118 2 23.674 -58.8831 0 0 0 0
516 118 2 22.2714 -58.7022 0 0 0 0
517 118 2 22.0905 -60.1048 0 0 0 0
518 118 2 23.4931 -60.2857 0 0 0 0
519 119 1 27.4587 -59.4939 0 0 0 0
520 119 2 26.5727 -59.9576 0 0 0 0
521 119 2 27.9224 -60.38 0 0 0 0
522 119 2 28.3448 -59.0303 0 0 0 0
523 119 2 26.9951 -58.6079 0 0 0 0
524 120 1 32.0352 -59.4939 0 0 0 0
525 120 2 33.0308 -59.4003 0 0 0 0
526 120 2 31.0396 -59.5876 0 0 0 0
527 121 1 36.6116 -59.4939 0 0 0 0
528 121 2 35.883 -60.1788 0 0 0 0
529 121 2 37.2965 -60.2226 0 0 0 0
530 121 2 37.3403 -58.8091 0 0 0 0
531 121 2 35.9268 -58.7653 0 0 0 0
532 122 1 41.1881 -59.4939 0 0 0 0
533 122 2 40.8917 -58.5389 0 0 0 0
534 122 2 40.2331 -59.7904 0 0 0 0
535 122 2 41.4845 -60.449 0 0 0 0
536 122 2 42.1432 -59.1975 0 0 0 0
537 123 1 45.7646 -59.4939 0 0 0 0
538 123 2 45.6385 -60.486 0 0 0 0
539 123 2 46.7566 -59.62 0 0 0 0
540 123 2 45.8906 -58.5019 0 0 0 0
541 123 2 44.7725 -59.3679 0 0 0 0
542 124 1 50.341 -59.4939 0 0 0 0
543 124 2 49.9329 -58.581 0 0 0 0
544 124 2 49.4281 -59.9021 0 0 0 0
545 124 2 50.7491 -60.4069 0 0 0 0
546 124 2 51.2539 -59.0858 0 0 0 0
547 125 1 54.9175 -59.4939 0 0 0 0
548 125 2 54.2628 -58.738 0 0 0 0
549 125 2 54.1616 -60.1486 0 0 0 0
550 125 2 55.5722 -60.2498 0 0 0 0
551 125 2 55.6734 -58.8392 0 0 0 0
552 126 1 59.4939 -59.4939 0 0 0 0
553 126 2 58.8042 -58.7699 0 0 0 0
554 126 2 60.1837 -60.218 0 0 0 0
555 127 1 64.0704 -59.4939 0 0 0 0
556 127 2 64.9203 -58.9671 0 0 0 0
557 127 2 63.2204 -60.0208 0 0 0 0
558 128 1 68.6468 -59.4939 0 0 0 0
559 128 2 67.8421 -60.0875 0 0 0 0
560 128 2 69.2404 -60.2987 0 0 0 0
561 128 2 69.4516 -58.9003 0 0 0 0
562 128 2 68.0532 -58.6892 0 0 0 0
563 129 1 -73.2233 -54.9175 0 0 0 0
564 129 2 72.5635 -54.166 0 -1 0 0
565 129 2 72.4719 -55.5773 0 -1 0 0
566 129 2 -72.5635 -55.6689 0 0 0 0
567 129 2 -72.4719 -54.2577 0 0 0 0
568 130 1 -68.6468 -54.9175 0 0 0 0
569 130 2 -69.0305 -53.994 0 0 0 0
570 130 2 -68.2631 -55.8409 0 0 0 0
571 131 1 -64.0704 -54.9175 0 0 0 0
572 131 2 -63.0834 -54.7569 0 0 0 0
573 131 2 -64.2309 -53.9304 0 0 0 0
574 131 2 -65.0574 -55.078 0 0 0 0
575 131 2 -63.9098 -55.9045 0 0 0 0
576 132 1 -59.4939 -54.9175 0 0 0 0
577 132 2 -58.4967 -54.9922 0 0 0 0
578 132 2 -60.4911 -54.8428 0 0 0 0
579 133 1 -54.9175 -54.9175 0 0 0 0
580 133 2 -55.6721 -55.5736 0 0 0 0
581 133 2 -54.1628 -54.2613 0 0 0 0
582 134 1 -50.341 -54.9175 0 0 0 0
583 134 2 -51.3176 -55.1328 0 0 0 0
584 134 2 -50.1257 -55.894 0 0 0 0
585 134 2 -49.3645 -54.7022 0 0 0 0
586 134 2 -50.5563 -53.9409 0 0 0 0
587 135 1 -45.7646 -54.9175 0 0 0 0
588 135 2 -44.7749 -54.7743 0 0 0 0
589 135 2 -46.7543 -55.0606 0 0 0 0
590 136 1 -41.1881 -54.9175 0 0 0 0
591 136 2 -41.9633 -55.5491 0 0 0 0
592 136 2 -40.5564 -55.6927 0 0 0 0
593 136 2 -40.4129 -54.2858 0 0 0 0
594 136 2 -41.8198 -54.1422 0 0 0 0
595 137 1 -36.6116 -54.9175 0 0 0 0
596 137 2 -35.8159 -55.523 0 0 0 0
597 137 2 -36.0061 -54.1217 0 0 0 0
598 137 2 -37.4074 -54.3119 0 0 0 0
599 137 2 -37.2172 -55.7133 0 0 0 0
600 138 1 -32.0352 -54.9175 0 0 0 0
601 138 2 -31.1646 -55.4096 0 0 0 0
602 138 2 -31.5431 -54.0469 0 0 0 0
603 138 2 -32.9057 -54.4254 0 0 0 0
604 138 2 -32.5273 -55.788 0 0 0 0
605 139 1 -27.4587 -54.9175 0 0 0 0
606 139 2 -26.7602 -55.633 0 0 0 0
607 139 2 -26.7432 -54.2189 0 0 0 0
608 139 2 -28.1573 -54.2019 0 0 0 0
609 139 2 -28.1743 -55.6161 0 0 0 0
610 140 1 -22.8823 -54.9175 0 0 0 0
611 140 2 -23.5216 -54.1485 0 0 0 0
612 140 2 -23.6512 -55.5568 0 0 0 0
613 140 2 -22.2429 -55.6864 0 0 0 0
614 140 2 -22.1134 -54.2781 0 0 0 0
615 141 1 -18.3058 -54.9175 0 0 0 0
616 141 2 -19.1501 -55.4533 0 0 0 0
617 141 2 -17.77 -55.7618 0 0 0 0
618 141 2 -17.4615 -54.3816 0 0 0 0
619 141 2 -18.8417 -54.0732 0 0 0 0
620 142 1 -13.7294 -54.9175 0 0 0 0
621 142 2 -13.1122 -55.7043 0 0 0 0
622 142 2 -12.9425 -54.3003 0 0 0 0
623 142 2 -14.3465 -54.1306 0 0 0 0
624 142 2 -14.5162 -55.5346 0 0 0 0
625 143 1 -9.15291 -54.9175 0 0 0 0
626 143 2 -9.31735 -53.9311 0 0 0 0
627 143 2 -10.1393 -55.0819 0 0 0 0
628 143 2 -8.98847 -55.9039 0 0 0 0
629 143 2 -8.16652 -54.753 0 0 0 0
630 144 1 -4.57646 -54.9175 0 0 0 0
631 144 2 -5.5109 -55.2736 0 0 0 0
632 144 2 -4.22035 -55.8519 0 0 0 0
633 144 2 -3.64201 -54.5614 0 0 0 0
634 144 2 -4.93257 -53.983 0 0 0 0
635 145 1 0 -54.9175 0 0 0 0
636 145 2 0.995285 -54.8205 0 0 0 0
637 145 2 -0.0969905 -53.9222 0 0 0 0
638 145 2 -0.995285 -55.0145 0 0 0 0
639 145 2 0.0969905 -55.9128 0 0 0 0
640 146 1 4.57646 -54.9175 0 0 0 0
641 146 2 5.35108 -55.5499 0 0 0 0
642 146 2 5.20888 -54.1429 0 0 0 0
643 146 2 3.80184 -54.285 0 0 0 0
644 146 2 3.94403 -55.6921 0 0 0 0
645 147 1 9.15291 -54.9175 0 0 0 0
646 147 2 8.40157 -54.2576 0 0 0 0
647 147 2 8.493 -55.6688 0 0 0 0
648 147 2 9.90426 -55.5774 0 0 0 0
649 147 2 9.81282 -54.1661 0 0 0 0
650 148 1 13.7294 -54.9175 0 0 0 0
651 148 2 13.115 -54.1285 0 0 0 0
652 148 2 12.9404 -55.5319 0 0 0 0
653 148 2 14.3438 -55.7065 0 0 0 0
654 148 2 14.5184 -54.3031 0 0 0 0
655 149 1 18.3058 -54.9175 0 0 0 0
656 149 2 18.9566 -55.6767 0 0 0 0
657 149 2 19.0651 -54.2667 0 0 0 0
658 149 2 17.655 -54.1582 0 0 0 0
659 149 2 17.5466 -55.5683 0 0 0 0
660 150 1 22.8823 -54.9175 0 0 0 0
661 150 2 23.3816 -55.7839 0 0 0 0
662 150 2 23.7487 -54.4182 0 0 0 0
663 150 2 22.383 -54.051 0 0 0 0
664 150 2 22.0159 -55.4168 0 0 0 0
665 151 1 27.4587 -54.9175 0 0 0 0
666 151 2 28.4391 -54.7205 0 0 0 0
667 151 2 27.2618 -53.9371 0 0 0 0
668 151 2 26.4783 -55.1145 0 0 0 0
669 151 2 27.6557 -55.8979 0 0 0 0
670 152 1 32.0352 -54.9175 0 0 0 0
671 152 2 32.8829 -54.387 0 0 0 0
672 152 2 31.5047 -54.0698 0 0 0 0
673 152 2 31.1875 -55.4479 0 0 0 0
674 152 2 32.5657 -55.7652 0 0 0 0
675 153 1 36.6116 -54.9175 0 0 0 0
676 153 2 37.4205 -54.3295 0 0 0 0
677 153 2 36.0237 -54.1086 0 0 0 0
678 153 2 35.8028 -55.5054 0 0 0 0
679 153 2 37.1996 -55.7264 0 0 0 0
680 154 1 41.1881 -54.9175 0 0 0 0
681 154 2 42.1597 -54.6809 0 0 0 0
682 154 2 40.9515 -53.9459 0 0 0 0
683 154 2 40.2165 -55.1541 0 0 0 0
684 154 2 41.4247 -55.8891 0 0 0 0
685 155 1 45.7646 -54.9175 0 0 0 0
686 155 2 45.1564 -55.7113 0 0 0 0
687 155 2 46.5584 -55.5256 0 0 0 0
688 155 2 46.3727 -54.1237 0 0 0 0
689 155 2 44.9707 -54.3093 0 0 0 0
690 156 1 50.341 -54.9175 0 0 0 0
691 156 2 50.0215 -53.9699 0 0 0 0
692 156 2 50.6606 -55.865 0 0 0 0
693 157 1 54.9175 -54.9175 0 0 0 0
694 157 2 54.0744 -54.3797 0 0 0 0
695 157 2 55.7606 -55.4552 0 0 0 0
696 158 1 59.4939 -54.9175 0 0 0 0
697 158 2 58.8942 -54.1173 0 0 0 0
698 158 2 60.0937 -55.7177 0 0 0 0
699 159 1 64.0704 -54.9175 0 0 0 0
700 159 2 64.2858 -53.941 0 0 0 0
701 159 2 63.0939 -54.7021 0 0 0 0
702 159 2 63.855 -55.894 0 0 0 0
703 159 2 65.0469 -55.1329 0 0 0 0
704 160 1 68.6468 -54.9175 0 0 0 0
705 160 2 69.6455 -54.9701 0 0 0 0
706 160 2 68.6994 -53.9189 0 0 0 0
707 160 2 67.6482 -54.8649 0 0 0 0
708 160 2 68.5943 -55.9161 0 0 0 0
709 161 1 -73.2233 -50.341 0 0 0 0
710 161 2 -72.4778 -51.0075 0 0 0 0
711 161 2 -72.5568 -49.5955 0 0 0 0
712 161 2 72.4778 -49.6745 0 -1 0 0
713 161 2 72.5568 -51.0865 0 -1 0 0
714 162 1 -68.6468 -50.341 0 0 0 0
715 162 2 -69.0632 -51.2502 0 0 0 0
716 162 2 -68.2305 -49.4318 0 0 0 0
717 163 1 -64.0704 -50.341 0 0 0 0
718 163 2 -63.265 -49.7483 0 0 0 0
719 163 2 -64.6631 -49.5356 0 0 0 0
720 163 2 -64.8758 -50.9337 0 0 0 0
721 163 2 -63.4777 -51.1464 0 0 0 0
722 164 1 -59.4939 -50.341 0 0 0 0
723 164 2 -60.4403 -50.018 0 0 0 0
724 164 2 -59.817 -51.2874 0 0 0 0
725 164 2 -58.5475 -50.664 0 0 0 0
726 164 2 -59.1709 -49.3946 0 0 0 0
727 165 1 -54.9175 -50.341 0 0 0 0
728 165 2 -55.4294 -51.2 0 0 0 0
729 165 2 -54.0585 -50.853 0 0 0 0
730 165 2 -54.4055 -49.482 0 0 0 0
731 165 2 -55.7765 -49.829 0 0 0 0
732 166 1 -50.341 -50.341 0 0 0 0
733 166 2 -49.7985 -51.181 0 0 0 0
734 166 2 -49.501 -49.7985 0 0 0 0
735 166 2 -50.8836 -49.501 0 0 0 0
736 166 2 -51.181 -50.8836 0 0 0 0
737 167 1 -45.7646 -50.341 0 0 0 0
738 167 2 -46.28 -51.1979 0 0 0 0
739 167 2 -44.9076 -50.8565 0 0 0 0
740 167 2 -45.2491 -49.4841 0 0 0 0
741 167 2 -46.6215 -49.8256 0 0 0 0
742 168 1 -41.1881 -50.341 0 0 0 0
743 168 2 -40.5578 -49.5646 0 0 0 0
744 168 2 -41.9645 -49.7108 0 0 0 0
745 168 2 -41.8184 -51.1174 0 0 0 0
746 168 2 -40.4117 -50.9713 0 0 0 0
747 169 1 -36.6116 -50.341 0 0 0 0
748 169 2 -36.6744 -49.343 0 0 0 0
749 169 2 -37.6097 -50.4038 0 0 0 0
750 169 2 -36.5489 -51.339 0 0 0 0
751 169 2 -35.6136 -50.2783 0 0 0 0
752 170 1 -32.0352 -50.341 0 0 0 0
753 170 2 -31.0838 -50.6489 0 0 0 0
754 170 2 -31.7273 -49.3896 0 0 0 0
755 170 2 -32.9866 -50.0331 0 0 0 0
756 170 2 -32.3431 -51.2924 0 0 0 0
757 171 1 -27.4587 -50.341 0 0 0 0
758 171 2 -26.8488 -51.1335 0 0 0 0
759 171 2 -26.6662 -49.7311 0 0 0 0
760 171 2 -28.0686 -49.5485 0 0 0 0
761 171 2 -28.2512 -50.9509 0 0 0 0
762 172 1 -22.8823 -50.341 0 0 0 0
763 172 2 -23.6415 -49.6902 0 0 0 0
764 172 2 -22.1231 -50.9919 0 0 0 0
765 173 1 -18.3058 -50.341 0 0 0 0
766 173 2 -17.406 -50.7772 0 0 0 0
767 173 2 -17.8696 -49.4412 0 0 0 0
768 173 2 -19.2057 -49.9048 0 0 0 0
769 173 2 -18.742 -51.2409 0 0 0 0
770 174 1 -13.7294 -50.341 0 0 0 0
771 174 2 -12.7294 -50.3391 0 0 0 0
772 174 2 -13.7313 -49.341 0 0 0 0
773 174 2 -14.7294 -50.3429 0 0 0 0
774 174 2 -13.7275 -51.341 0 0 0 0
775 175 1 -9.15291 -50.341 0 0 0 0
776 175 2 -8.45547 -49.6244 0 0 0 0
777 175 2 -9.86955 -49.6436 0 0 0 0
778 175 2 -9.85035 -51.0577 0 0 0 0
779 175 2 -8.43627 -51.0385 0 0 0 0
780 176 1 -4.57646 -50.341 0 0 0 0
781 176 2 -4.01372 -51.1677 0 0 0 0
782 176 2 -3.74982 -49.7783 0 0 0 0
783 176 2 -5.13919 -49.5144 0 0 0 0
784 176 2 -5.40309 -50.9038 0 0 0 0
785 177 1 0 -50.341 0 0 0 0
786 177 2 -0.770444 -50.9785 0 0 0 0
787 177 2 0.637508 -51.1115 0 0 0 0
788 177 2 0.770444 -49.7035 0 0 0 0
789 177 2 -0.637508 -49.5706 0 0 0 0
790 178 1 4.57646 -50.341 0 0 0 0
791 178 2 3.60404 -50.5743 0 0 0 0
792 178 2 4.8097 -51.3134 0 0 0 0
793 178 2 5.54887 -50.1078 0 0 0 0
794 178 2 4.34321 -49.3686 0 0 0 0
795 179 1 9.15291 -50.341 0 0 0 0
796 179 2 8.22776 -49.9614 0 0 0 0
797 179 2 8.77331 -51.2662 0 0 0 0
798 179 2 10.0781 -50.7206 0 0 0 0
799 179 2 9.53252 -49.4159 0 0 0 0
800 180 1 13.7294 -50.341 0 0 0 0
801 180 2 12.8425 -50.8031 0 0 0 0
802 180 2 14.6162 -49.879 0 0 0 0
803 181 1 18.3058 -50.341 0 0 0 0
804 181 2 17.4709 -50.8914 0 0 0 0
805 181 2 18.8562 -51.1759 0 0 0 0
806 181 2 19.1407 -49.7906 0 0 0 0
807 181 2 17.7554 -49.5061 0 0 0 0
808 182 1 22.8823 -50.341 0 0 0 0
809 182 2 21.9045 -50.1312 0 0 0 0
810 182 2 22.6725 -51.3188 0 0 0 0
811 182 2 23.86 -50.5508 0 0 0 0
812 182 2 23.0921 -49.3633 0 0 0 0
813 183 1 27.4587 -50.341 0 0 0 0
814 183 2 28.4587 -50.3339 0 0 0 0
815 183 2 27.4516 -49.341 0 0 0 0
816 183 2 26.4588 -50.3482 0 0 0 0
817 183 2 27.4659 -51.341 0 0 0 0
818 184 1 32.0352 -50.341 0 0 0 0
819 184 2 33.0027 -50.0881 0 0 0 0
820 184 2 31.7823 -49.3735 0 0 0 0
821 184 2 31.0677 -50.594 0 0 0 0
822 184 2 32.2881 -51.3085 0 0 0 0
823 185 1 36.6116 -50.341 0 0 0 0
824 185 2 37.5946 -50.5246 0 0 0 0
825 185 2 36.7953 -49.358 0 0 0 0
826 185 2 35.6287 -50.1574 0 0 0 0
827 185 2 36.428 -51.324 0 0 0 0
828 186 1 41.1881 -50.341 0 0 0 0
829 186 2 42.1807 -50.2196 0 0 0 0
830 186 2 40.1955 -50.4624 0 0 0 0
831 187 1 45.7646 -50.341 0 0 0 0
832 187 2 45.0012 -49.695 0 0 0 0
833 187 2 45.1186 -51.1044 0 0 0 0
834 187 2 46.5279 -50.987 0 0 0 0
835 187 2 46.4106 -49.5777 0 0 0 0
836 188 1 50.341 -50.341 0 0 0 0
837 188 2 49.6437 -51.0578 0 0 0 0
838 188 2 51.0578 -51.0383 0 0 0 0
839 188 2 51.0383 -49.6242 0 0 0 0
840 188 2 49.6242 -49.6437 0 0 0 0
841 189 1 54.9175 -50.341 0 0 0 0
842 189 2 54.2968 -51.1251 0 0 0 0
843 189 2 55.7015 -50.9617 0 0 0 0
844 189 2 55.5382 -49.557 0 0 0 0
845 189 2 54.1334 -49.7203 0 0 0 0
846 190 1 59.4939 -50.341 0 0 0 0
847 190 2 58.508 -50.1737 0 0 0 0
848 190 2 60.4798 -50.5083 0 0 0 0
849 191 1 64.0704 -50.341 0 0 0 0
850 191 2 64.9013 -50.8975 0 0 0 0
851 191 2 64.6268 -49.5101 0 0 0 0
852 191 2 63.2395 -49.7846 0 0 0 0
853 191 2 63.5139 -51.1719 0 0 0 0
854 192 1 68.6468 -50.341 0 0 0 0
855 192 2 69.3969 -51.0023 0 0 0 0
856 192 2 69.3082 -49.5909 0 0 0 0
857 192 2 67.8967 -49.6797 0 0 0 0
858 192 2 67.9855 -51.0911 0 0 0 0
859 193 1 -73.2233 -45.7646 0 0 0 0
860 193 2 -72.2983 -46.1445 0 0 0 0
861 193 2 -72.8434 -44.8395 0 0 0 0
862 193 2 72.2983 -45.3846 0 -1 0 0